
     Program BANDS v.6.1 (svn rev. 13369) starts on  3Jan2020 at 16:30:12 

     This program is part of the open-source Quantum ESPRESSO suite
     for quantum simulation of materials; please cite
         "P. Giannozzi et al., J. Phys.:Condens. Matter 21 395502 (2009);
          URL http://www.quantum-espresso.org", 
     in publications or presentations arising from this work. More details at
     http://www.quantum-espresso.org/quote

     Parallel version (MPI), running on    40 processors
     R & G space division:  proc/nbgrp/npool/nimage =      40

     Reading data from directory:
     ./outdir/NiO.save

   Info: using nr1, nr2, nr3 values from input

   Info: using nr1, nr2, nr3 values from input

     IMPORTANT: XC functional enforced from input :
     Exchange-correlation      =  SLA  PW   PBX  PBC ( 1  4  3  4 0 0)
     Any further DFT definition will be discarded
     Please, verify this is what you really want

               file Ni.pbe-spn-kjpaw_psl.1.0.0.UPF: wavefunction(s)  3P 3D renormalized
               file Ni.pbe-spn-kjpaw_psl.1.0.0.UPF: wavefunction(s)  3P 3D renormalized
               file O.pbe-n-kjpaw_psl.1.0.0.UPF: wavefunction(s)  2S 2P renormalized
 
     Parallelization info
     --------------------
     sticks:   dense  smooth     PW     G-vecs:    dense   smooth      PW
     Min          82      82     22                 2333     2333     341
     Max          83      83     23                 2335     2335     344
     Sum        3287    3287    911                93351    93351   13705
 
     Generating pointlists ...
     new r_m :   0.1684 (alat units)  1.6253 (a.u.) for type    1
     new r_m :   0.1684 (alat units)  1.6253 (a.u.) for type    2
     new r_m :   0.1684 (alat units)  1.6253 (a.u.) for type    3
     high-symmetry point:  0.0000 0.0000 0.0000   x coordinate   0.0000
     high-symmetry point:  0.0000-0.9045-0.5539   x coordinate   1.0607
     high-symmetry point: -0.1875-0.6219-1.0155   x coordinate   1.6335
     high-symmetry point: -0.3438-0.1036-1.0155   x coordinate   2.1747
     high-symmetry point:  0.0000 0.0000 0.0000   x coordinate   3.2519
     high-symmetry point: -0.5000-0.1508-0.0923   x coordinate   3.7822
     high-symmetry point: -0.1875-0.9045-0.5539   x coordinate   4.7197
     high-symmetry point: -0.1875-0.6219-1.0155   x coordinate   5.2609
     high-symmetry point: -0.5000-0.1508-0.0923   x coordinate   6.3435
     high-symmetry point: -0.3438-0.1036-1.0155   x coordinate   7.2810
     high-symmetry point: -0.1875-0.9045-0.5539   x coordinate   8.2185
     high-symmetry point:  0.0000-0.9045-0.5539   x coordinate   8.4060
     high-symmetry point:  0.0000 0.0000 0.0000   x coordinate   9.4666
     high-symmetry point:  0.0000 0.0000-1.0155   x coordinate  10.4821
     high-symmetry point:  0.0000-0.6219-1.0155   x coordinate  11.1040
     high-symmetry point:  0.1875-0.6219-1.0155   x coordinate  11.2915
     high-symmetry point:  0.0000 0.0000 0.0000   x coordinate  12.4970

     Plottable bands (eV) written to file NiO.bands.dat.gnu
     Bands written to file NiO.bands.dat

 **************************************************************************

                    xk=(   0.00000,   0.00000,   0.00000  )

     point group C_i (-1)   
     there are  2 classes
     the character table:

       E     i    
A_g    1.00  1.00
A_u    1.00 -1.00

     the symmetry operations in each class and the name of the first element:

     E        1
                                                                 
     i        2
                                                                 

     Band symmetry, C_i (-1)    point group:

     e(  1 -  1) =    -90.44783  eV     1   --> A_g            
     e(  2 -  2) =    -88.37454  eV     1   --> A_g            
     e(  3 -  3) =    -50.79637  eV     1   --> A_u            
     e(  4 -  4) =    -50.78103  eV     1   --> A_u            
     e(  5 -  5) =    -50.78055  eV     1   --> A_u            
     e(  6 -  6) =    -48.77268  eV     1   --> A_u            
     e(  7 -  7) =    -48.75744  eV     1   --> A_u            
     e(  8 -  8) =    -48.75730  eV     1   --> A_u            
     e(  9 -  9) =     -5.61568  eV     1   --> A_g            
     e( 10 - 10) =     -4.15588  eV     1   --> A_u            
     e( 11 - 11) =      3.65083  eV     1   --> A_g            
     e( 12 - 12) =      6.73488  eV     1   --> A_g            
     e( 13 - 13) =      6.73508  eV     1   --> A_g            
     e( 14 - 14) =      9.47493  eV     1   --> A_g            
     e( 15 - 15) =      9.47562  eV     1   --> A_g            
     e( 16 - 16) =      9.58983  eV     1   --> A_g            
     e( 17 - 17) =     10.21598  eV     1   --> A_u            
     e( 18 - 19) =     10.21758  eV     2   -->   2 A_u            
     e( 20 - 20) =     10.36601  eV     1   --> A_g            
     e( 21 - 21) =     10.36793  eV     1   --> A_g            
     e( 22 - 22) =     11.40678  eV     1   --> A_g            
     e( 23 - 23) =     11.65089  eV     1   --> A_g            
     e( 24 - 24) =     11.65237  eV     1   --> A_g            
     e( 25 - 25) =     16.15058  eV     1   --> A_g            
     e( 26 - 26) =     16.27577  eV     1   --> A_g            
     e( 27 - 27) =     16.27662  eV     1   --> A_g            
     e( 28 - 28) =     20.09220  eV     1   --> A_u            
     e( 29 - 29) =     24.65681  eV     1   --> A_g            
     e( 30 - 30) =     28.55764  eV     1   --> A_u            
     e( 31 - 31) =     28.55776  eV     1   --> A_u            
     e( 32 - 32) =     32.20860  eV     1   --> A_u            
     e( 33 - 33) =     33.39996  eV     1   --> A_g            
     e( 34 - 35) =     33.40011  eV     2   -->   2 A_g            
     e( 36 - 36) =     35.77860  eV     1   --> A_g            
     e( 37 - 37) =     36.89581  eV     1   --> A_u            
     e( 38 - 38) =     36.90278  eV     1   --> A_u            
     e( 39 - 39) =     36.90290  eV     1   --> A_u            
     e( 40 - 40) =     40.21986  eV     1   --> A_g            
     e( 41 - 41) =     40.22003  eV     1   --> A_g            
     e( 42 - 42) =     40.59189  eV     1   --> A_g            
     e( 43 - 43) =     40.59218  eV     1   --> A_g            
     e( 44 - 44) =     41.24321  eV     1   --> A_u            
     e( 45 - 46) =     43.42921  eV     2   -->   2 A_u            
     e( 47 - 48) =     50.75763  eV     2   -->   2 A_u            
     e( 49 - 49) =     50.76091  eV     1   --> A_u            
     e( 50 - 50) =     51.12106  eV     1   --> A_g            
     e( 51 - 51) =     54.83139  eV     1   --> A_g            
     e( 52 - 52) =     54.83156  eV     1   --> A_g            
     e( 53 - 53) =     56.71778  eV     1   --> A_u            
     e( 54 - 54) =     56.89271  eV     1   --> A_g            
     e( 55 - 56) =     58.97841  eV     2   -->   2 A_u            
     e( 57 - 58) =     65.67617  eV     2   -->   2 A_g            
     e( 59 - 59) =     67.66690  eV     1   --> A_u            
     e( 60 - 60) =     68.08859  eV     1   --> A_u            
     e( 61 - 62) =     68.09007  eV     2   -->   2 A_u            
     e( 63 - 64) =     70.88868  eV     2   -->   2 A_g            
     e( 65 - 65) =     70.96067  eV     1   --> A_g            
     e( 66 - 67) =     70.96292  eV     2   -->   2 A_g            
     e( 68 - 68) =     72.44723  eV     1   --> A_g            
     e( 69 - 69) =     72.59466  eV     1   --> A_u            
     e( 70 - 70) =     72.66232  eV     1   --> A_u            
     e( 71 - 72) =     73.55913  eV     2   -->   2 A_u            
     e( 73 - 73) =     74.17327  eV     1   --> A_g            
     e( 74 - 74) =     77.07181  eV     1   --> A_g            
     e( 75 - 76) =     80.28387  eV     2   -->   2 A_g            
     e( 77 - 77) =     80.90944  eV     1   --> A_g            
     e( 78 - 79) =     82.65840  eV     2   -->   2 A_u            
     e( 80 - 80) =     87.98386  eV     1   --> A_u            
     e( 81 - 82) =     87.98461  eV     2   -->   2 A_u            
     e( 83 - 83) =     89.37020  eV     1   --> A_u            
     e( 84 - 85) =     89.93311  eV     2   -->   2 A_g            
     e( 86 - 87) =     90.98089  eV     2   -->   2 A_u            
     e( 88 - 88) =     91.03236  eV     1   --> A_u            
     e( 89 - 89) =     92.80513  eV     1   --> A_g            
     e( 90 - 90) =     93.25872  eV     1   --> A_u            
     e( 91 - 92) =     93.36945  eV     2   -->   2 A_u            
     e( 93 - 93) =     93.37821  eV     1   --> A_u            
     e( 94 - 95) =     93.59991  eV     2   -->   2 A_u            
     e( 96 - 97) =     93.63330  eV     2   -->   2 A_g            
     e( 98 - 99) =     94.96047  eV     2   -->   2 A_g            
     e(100 -100) =     94.96109  eV     1   --> A_g            

 **************************************************************************

 **************************************************************************

                    xk=(   0.00000,  -0.02154,  -0.01319  )

     point group C_1 (1)    
     there are  1 classes
     the character table:

       E    
A      1.00

     the symmetry operations in each class and the name of the first element:

     E        1
                                                                 

     Band symmetry, C_1 (1)     point group:

     e(  1 -  1) =    -90.44784  eV     1   --> A              
     e(  2 -  2) =    -88.37456  eV     1   --> A              
     e(  3 -  3) =    -50.79638  eV     1   --> A              
     e(  4 -  4) =    -50.78105  eV     1   --> A              
     e(  5 -  5) =    -50.78060  eV     1   --> A              
     e(  6 -  6) =    -48.77269  eV     1   --> A              
     e(  7 -  7) =    -48.75747  eV     1   --> A              
     e(  8 -  8) =    -48.75734  eV     1   --> A              
     e(  9 -  9) =     -5.61454  eV     1   --> A              
     e( 10 - 10) =     -4.15624  eV     1   --> A              
     e( 11 - 11) =      3.65503  eV     1   --> A              
     e( 12 - 12) =      6.73378  eV     1   --> A              
     e( 13 - 13) =      6.73577  eV     1   --> A              
     e( 14 - 14) =      9.46732  eV     1   --> A              
     e( 15 - 15) =      9.47089  eV     1   --> A              
     e( 16 - 16) =      9.58655  eV     1   --> A              
     e( 17 - 17) =     10.18331  eV     1   --> A              
     e( 18 - 18) =     10.21094  eV     1   --> A              
     e( 19 - 19) =     10.21793  eV     1   --> A              
     e( 20 - 20) =     10.37471  eV     1   --> A              
     e( 21 - 21) =     10.39613  eV     1   --> A              
     e( 22 - 22) =     11.40621  eV     1   --> A              
     e( 23 - 23) =     11.65185  eV     1   --> A              
     e( 24 - 24) =     11.65493  eV     1   --> A              
     e( 25 - 25) =     16.16126  eV     1   --> A              
     e( 26 - 26) =     16.27379  eV     1   --> A              
     e( 27 - 27) =     16.27471  eV     1   --> A              
     e( 28 - 28) =     20.10180  eV     1   --> A              
     e( 29 - 29) =     24.65471  eV     1   --> A              
     e( 30 - 30) =     28.54378  eV     1   --> A              
     e( 31 - 31) =     28.56221  eV     1   --> A              
     e( 32 - 32) =     32.14518  eV     1   --> A              
     e( 33 - 33) =     33.39604  eV     1   --> A              
     e( 34 - 34) =     33.39617  eV     1   --> A              
     e( 35 - 35) =     33.44725  eV     1   --> A              
     e( 36 - 36) =     35.79933  eV     1   --> A              
     e( 37 - 37) =     36.87805  eV     1   --> A              
     e( 38 - 38) =     36.88428  eV     1   --> A              
     e( 39 - 39) =     36.92259  eV     1   --> A              
     e( 40 - 40) =     40.14931  eV     1   --> A              
     e( 41 - 41) =     40.22441  eV     1   --> A              
     e( 42 - 42) =     40.60949  eV     1   --> A              
     e( 43 - 43) =     40.61806  eV     1   --> A              
     e( 44 - 44) =     41.30727  eV     1   --> A              
     e( 45 - 45) =     43.43535  eV     1   --> A              
     e( 46 - 46) =     43.45168  eV     1   --> A              
     e( 47 - 47) =     50.67569  eV     1   --> A              
     e( 48 - 48) =     50.75724  eV     1   --> A              
     e( 49 - 49) =     50.76013  eV     1   --> A              
     e( 50 - 50) =     51.20765  eV     1   --> A              
     e( 51 - 51) =     54.82336  eV     1   --> A              
     e( 52 - 52) =     54.82539  eV     1   --> A              
     e( 53 - 53) =     56.58072  eV     1   --> A              
     e( 54 - 54) =     57.04112  eV     1   --> A              
     e( 55 - 55) =     58.96781  eV     1   --> A              
     e( 56 - 56) =     58.98593  eV     1   --> A              
     e( 57 - 57) =     65.60476  eV     1   --> A              
     e( 58 - 58) =     65.68877  eV     1   --> A              
     e( 59 - 59) =     67.72046  eV     1   --> A              
     e( 60 - 60) =     67.96449  eV     1   --> A              
     e( 61 - 61) =     67.96580  eV     1   --> A              
     e( 62 - 62) =     68.09335  eV     1   --> A              
     e( 63 - 63) =     70.92226  eV     1   --> A              
     e( 64 - 64) =     70.92347  eV     1   --> A              
     e( 65 - 65) =     70.96300  eV     1   --> A              
     e( 66 - 66) =     71.06097  eV     1   --> A              
     e( 67 - 67) =     71.06175  eV     1   --> A              
     e( 68 - 68) =     72.45312  eV     1   --> A              
     e( 69 - 69) =     72.55566  eV     1   --> A              
     e( 70 - 70) =     72.67735  eV     1   --> A              
     e( 71 - 71) =     73.45874  eV     1   --> A              
     e( 72 - 72) =     73.57112  eV     1   --> A              
     e( 73 - 73) =     74.17514  eV     1   --> A              
     e( 74 - 74) =     77.19254  eV     1   --> A              
     e( 75 - 75) =     80.19793  eV     1   --> A              
     e( 76 - 76) =     80.24211  eV     1   --> A              
     e( 77 - 77) =     80.86090  eV     1   --> A              
     e( 78 - 78) =     82.74859  eV     1   --> A              
     e( 79 - 79) =     82.78247  eV     1   --> A              
     e( 80 - 80) =     87.96268  eV     1   --> A              
     e( 81 - 81) =     87.96459  eV     1   --> A              
     e( 82 - 82) =     87.96532  eV     1   --> A              
     e( 83 - 83) =     89.06559  eV     1   --> A              
     e( 84 - 84) =     89.89578  eV     1   --> A              
     e( 85 - 85) =     90.17133  eV     1   --> A              
     e( 86 - 86) =     90.89517  eV     1   --> A              
     e( 87 - 87) =     90.93123  eV     1   --> A              
     e( 88 - 88) =     90.96050  eV     1   --> A              
     e( 89 - 89) =     92.59984  eV     1   --> A              
     e( 90 - 90) =     93.18042  eV     1   --> A              
     e( 91 - 91) =     93.18114  eV     1   --> A              
     e( 92 - 92) =     93.21608  eV     1   --> A              
     e( 93 - 93) =     93.21868  eV     1   --> A              
     e( 94 - 94) =     93.63044  eV     1   --> A              
     e( 95 - 95) =     93.70897  eV     1   --> A              
     e( 96 - 96) =     93.71630  eV     1   --> A              
     e( 97 - 97) =     93.83420  eV     1   --> A              
     e( 98 - 98) =     94.99431  eV     1   --> A              
     e( 99 - 99) =     95.07065  eV     1   --> A              
     e(100 -100) =     95.07110  eV     1   --> A              

 **************************************************************************

 **************************************************************************

                    xk=(   0.00000,  -0.04307,  -0.02638  )

     Band symmetry, C_1 (1)     point group:

     e(  1 -  1) =    -90.44785  eV     1   --> A              
     e(  2 -  2) =    -88.37460  eV     1   --> A              
     e(  3 -  3) =    -50.79641  eV     1   --> A              
     e(  4 -  4) =    -50.78113  eV     1   --> A              
     e(  5 -  5) =    -50.78070  eV     1   --> A              
     e(  6 -  6) =    -48.77272  eV     1   --> A              
     e(  7 -  7) =    -48.75758  eV     1   --> A              
     e(  8 -  8) =    -48.75744  eV     1   --> A              
     e(  9 -  9) =     -5.61112  eV     1   --> A              
     e( 10 - 10) =     -4.15730  eV     1   --> A              
     e( 11 - 11) =      3.66762  eV     1   --> A              
     e( 12 - 12) =      6.73038  eV     1   --> A              
     e( 13 - 13) =      6.73801  eV     1   --> A              
     e( 14 - 14) =      9.44149  eV     1   --> A              
     e( 15 - 15) =      9.45829  eV     1   --> A              
     e( 16 - 16) =      9.57804  eV     1   --> A              
     e( 17 - 17) =     10.11660  eV     1   --> A              
     e( 18 - 18) =     10.19488  eV     1   --> A              
     e( 19 - 19) =     10.21929  eV     1   --> A              
     e( 20 - 20) =     10.39577  eV     1   --> A              
     e( 21 - 21) =     10.45065  eV     1   --> A              
     e( 22 - 22) =     11.40448  eV     1   --> A              
     e( 23 - 23) =     11.65432  eV     1   --> A              
     e( 24 - 24) =     11.66297  eV     1   --> A              
     e( 25 - 25) =     16.19306  eV     1   --> A              
     e( 26 - 26) =     16.26675  eV     1   --> A              
     e( 27 - 27) =     16.27029  eV     1   --> A              
     e( 28 - 28) =     20.13040  eV     1   --> A              
     e( 29 - 29) =     24.64841  eV     1   --> A              
     e( 30 - 30) =     28.50255  eV     1   --> A              
     e( 31 - 31) =     28.57582  eV     1   --> A              
     e( 32 - 32) =     31.97981  eV     1   --> A              
     e( 33 - 33) =     33.38395  eV     1   --> A              
     e( 34 - 34) =     33.38406  eV     1   --> A              
     e( 35 - 35) =     33.56392  eV     1   --> A              
     e( 36 - 36) =     35.86050  eV     1   --> A              
     e( 37 - 37) =     36.82535  eV     1   --> A              
     e( 38 - 38) =     36.83119  eV     1   --> A              
     e( 39 - 39) =     36.98366  eV     1   --> A              
     e( 40 - 40) =     39.96250  eV     1   --> A              
     e( 41 - 41) =     40.23491  eV     1   --> A              
     e( 42 - 42) =     40.68222  eV     1   --> A              
     e( 43 - 43) =     40.69686  eV     1   --> A              
     e( 44 - 44) =     41.45244  eV     1   --> A              
     e( 45 - 45) =     43.45364  eV     1   --> A              
     e( 46 - 46) =     43.51855  eV     1   --> A              
     e( 47 - 47) =     50.51748  eV     1   --> A              
     e( 48 - 48) =     50.75594  eV     1   --> A              
     e( 49 - 49) =     50.75882  eV     1   --> A              
     e( 50 - 50) =     51.37880  eV     1   --> A              
     e( 51 - 51) =     54.79938  eV     1   --> A              
     e( 52 - 52) =     54.80733  eV     1   --> A              
     e( 53 - 53) =     56.39498  eV     1   --> A              
     e( 54 - 54) =     57.25970  eV     1   --> A              
     e( 55 - 55) =     58.93631  eV     1   --> A              
     e( 56 - 56) =     59.00912  eV     1   --> A              
     e( 57 - 57) =     65.41176  eV     1   --> A              
     e( 58 - 58) =     65.72533  eV     1   --> A              
     e( 59 - 59) =     67.64389  eV     1   --> A              
     e( 60 - 60) =     67.64490  eV     1   --> A              
     e( 61 - 61) =     67.86021  eV     1   --> A              
     e( 62 - 62) =     68.10369  eV     1   --> A              
     e( 63 - 63) =     70.93557  eV     1   --> A              
     e( 64 - 64) =     70.93705  eV     1   --> A              
     e( 65 - 65) =     70.96382  eV     1   --> A              
     e( 66 - 66) =     71.39616  eV     1   --> A              
     e( 67 - 67) =     71.39662  eV     1   --> A              
     e( 68 - 68) =     72.43515  eV     1   --> A              
     e( 69 - 69) =     72.47362  eV     1   --> A              
     e( 70 - 70) =     72.71847  eV     1   --> A              
     e( 71 - 71) =     73.20001  eV     1   --> A              
     e( 72 - 72) =     73.60755  eV     1   --> A              
     e( 73 - 73) =     74.18066  eV     1   --> A              
     e( 74 - 74) =     77.51706  eV     1   --> A              
     e( 75 - 75) =     79.94124  eV     1   --> A              
     e( 76 - 76) =     80.13652  eV     1   --> A              
     e( 77 - 77) =     80.78169  eV     1   --> A              
     e( 78 - 78) =     82.99894  eV     1   --> A              
     e( 79 - 79) =     83.08693  eV     1   --> A              
     e( 80 - 80) =     87.89534  eV     1   --> A              
     e( 81 - 81) =     87.90446  eV     1   --> A              
     e( 82 - 82) =     87.90565  eV     1   --> A              
     e( 83 - 83) =     88.54488  eV     1   --> A              
     e( 84 - 84) =     89.78873  eV     1   --> A              
     e( 85 - 85) =     90.42312  eV     1   --> A              
     e( 86 - 86) =     90.65602  eV     1   --> A              
     e( 87 - 87) =     90.77851  eV     1   --> A              
     e( 88 - 88) =     90.82869  eV     1   --> A              
     e( 89 - 89) =     92.27792  eV     1   --> A              
     e( 90 - 90) =     92.81824  eV     1   --> A              
     e( 91 - 91) =     92.81986  eV     1   --> A              
     e( 92 - 92) =     92.83762  eV     1   --> A              
     e( 93 - 93) =     93.10267  eV     1   --> A              
     e( 94 - 94) =     93.72427  eV     1   --> A              
     e( 95 - 95) =     93.78660  eV     1   --> A              
     e( 96 - 96) =     93.81773  eV     1   --> A              
     e( 97 - 97) =     94.27597  eV     1   --> A              
     e( 98 - 98) =     95.08802  eV     1   --> A              
     e( 99 - 99) =     95.32804  eV     1   --> A              
     e(100 -100) =     95.32826  eV     1   --> A              

 **************************************************************************

 **************************************************************************

                    xk=(   0.00000,  -0.06461,  -0.03957  )

     Band symmetry, C_1 (1)     point group:

     e(  1 -  1) =    -90.44788  eV     1   --> A              
     e(  2 -  2) =    -88.37468  eV     1   --> A              
     e(  3 -  3) =    -50.79645  eV     1   --> A              
     e(  4 -  4) =    -50.78127  eV     1   --> A              
     e(  5 -  5) =    -50.78086  eV     1   --> A              
     e(  6 -  6) =    -48.77277  eV     1   --> A              
     e(  7 -  7) =    -48.75781  eV     1   --> A              
     e(  8 -  8) =    -48.75754  eV     1   --> A              
     e(  9 -  9) =     -5.60539  eV     1   --> A              
     e( 10 - 10) =     -4.15905  eV     1   --> A              
     e( 11 - 11) =      3.68852  eV     1   --> A              
     e( 12 - 12) =      6.72475  eV     1   --> A              
     e( 13 - 13) =      6.74171  eV     1   --> A              
     e( 14 - 14) =      9.39523  eV     1   --> A              
     e( 15 - 15) =      9.43753  eV     1   --> A              
     e( 16 - 16) =      9.56658  eV     1   --> A              
     e( 17 - 17) =     10.04001  eV     1   --> A              
     e( 18 - 18) =     10.17571  eV     1   --> A              
     e( 19 - 19) =     10.22158  eV     1   --> A              
     e( 20 - 20) =     10.42326  eV     1   --> A              
     e( 21 - 21) =     10.50832  eV     1   --> A              
     e( 22 - 22) =     11.40153  eV     1   --> A              
     e( 23 - 23) =     11.65838  eV     1   --> A              
     e( 24 - 24) =     11.67620  eV     1   --> A              
     e( 25 - 25) =     16.24519  eV     1   --> A              
     e( 26 - 26) =     16.25527  eV     1   --> A              
     e( 27 - 27) =     16.26326  eV     1   --> A              
     e( 28 - 28) =     20.17741  eV     1   --> A              
     e( 29 - 29) =     24.63793  eV     1   --> A              
     e( 30 - 30) =     28.43583  eV     1   --> A              
     e( 31 - 31) =     28.59837  eV     1   --> A              
     e( 32 - 32) =     31.75358  eV     1   --> A              
     e( 33 - 34) =     33.36298  eV     2   -->   2 A              
     e( 35 - 35) =     33.70919  eV     1   --> A              
     e( 36 - 36) =     35.95898  eV     1   --> A              
     e( 37 - 37) =     36.74489  eV     1   --> A              
     e( 38 - 38) =     36.75023  eV     1   --> A              
     e( 39 - 39) =     37.08540  eV     1   --> A              
     e( 40 - 40) =     39.71333  eV     1   --> A              
     e( 41 - 41) =     40.24697  eV     1   --> A              
     e( 42 - 42) =     40.81388  eV     1   --> A              
     e( 43 - 43) =     40.82700  eV     1   --> A              
     e( 44 - 44) =     41.61822  eV     1   --> A              
     e( 45 - 45) =     43.48395  eV     1   --> A              
     e( 46 - 46) =     43.62790  eV     1   --> A              
     e( 47 - 47) =     50.34160  eV     1   --> A              
     e( 48 - 48) =     50.75378  eV     1   --> A              
     e( 49 - 49) =     50.75665  eV     1   --> A              
     e( 50 - 50) =     51.57634  eV     1   --> A              
     e( 51 - 51) =     54.76112  eV     1   --> A              
     e( 52 - 52) =     54.77745  eV     1   --> A              
     e( 53 - 53) =     56.21776  eV     1   --> A              
     e( 54 - 54) =     57.48733  eV     1   --> A              
     e( 55 - 55) =     58.88493  eV     1   --> A              
     e( 56 - 56) =     59.05062  eV     1   --> A              
     e( 57 - 57) =     65.13772  eV     1   --> A              
     e( 58 - 58) =     65.78199  eV     1   --> A              
     e( 59 - 59) =     67.21391  eV     1   --> A              
     e( 60 - 60) =     67.21471  eV     1   --> A              
     e( 61 - 61) =     68.04542  eV     1   --> A              
     e( 62 - 62) =     68.12091  eV     1   --> A              
     e( 63 - 63) =     70.94728  eV     1   --> A              
     e( 64 - 64) =     70.94858  eV     1   --> A              
     e( 65 - 65) =     70.96482  eV     1   --> A              
     e( 66 - 66) =     71.86006  eV     1   --> A              
     e( 67 - 67) =     71.86029  eV     1   --> A              
     e( 68 - 68) =     72.22300  eV     1   --> A              
     e( 69 - 69) =     72.51404  eV     1   --> A              
     e( 70 - 70) =     72.77723  eV     1   --> A              
     e( 71 - 71) =     72.86981  eV     1   --> A              
     e( 72 - 72) =     73.66984  eV     1   --> A              
     e( 73 - 73) =     74.18955  eV     1   --> A              
     e( 74 - 74) =     77.97299  eV     1   --> A              
     e( 75 - 75) =     79.56191  eV     1   --> A              
     e( 76 - 76) =     80.00673  eV     1   --> A              
     e( 77 - 77) =     80.72285  eV     1   --> A              
     e( 78 - 78) =     83.36912  eV     1   --> A              
     e( 79 - 79) =     83.47211  eV     1   --> A              
     e( 80 - 80) =     87.77514  eV     1   --> A              
     e( 81 - 81) =     87.79604  eV     1   --> A              
     e( 82 - 82) =     87.79993  eV     1   --> A              
     e( 83 - 83) =     87.96884  eV     1   --> A              
     e( 84 - 84) =     89.62397  eV     1   --> A              
     e( 85 - 85) =     90.24074  eV     1   --> A              
     e( 86 - 86) =     90.30671  eV     1   --> A              
     e( 87 - 87) =     90.64119  eV     1   --> A              
     e( 88 - 88) =     90.80359  eV     1   --> A              
     e( 89 - 89) =     92.07817  eV     1   --> A              
     e( 90 - 90) =     92.35915  eV     1   --> A              
     e( 91 - 91) =     92.41000  eV     1   --> A              
     e( 92 - 92) =     92.41230  eV     1   --> A              
     e( 93 - 93) =     92.92118  eV     1   --> A              
     e( 94 - 94) =     93.81759  eV     1   --> A              
     e( 95 - 95) =     93.84287  eV     1   --> A              
     e( 96 - 96) =     93.96915  eV     1   --> A              
     e( 97 - 97) =     94.75442  eV     1   --> A              
     e( 98 - 98) =     95.22415  eV     1   --> A              
     e( 99 - 99) =     95.65351  eV     1   --> A              
     e(100 -100) =     95.65492  eV     1   --> A              

 **************************************************************************

 **************************************************************************

                    xk=(   0.00000,  -0.08615,  -0.05275  )

     Band symmetry, C_1 (1)     point group:

     e(  1 -  1) =    -90.44792  eV     1   --> A              
     e(  2 -  2) =    -88.37478  eV     1   --> A              
     e(  3 -  3) =    -50.79652  eV     1   --> A              
     e(  4 -  4) =    -50.78151  eV     1   --> A              
     e(  5 -  5) =    -50.78103  eV     1   --> A              
     e(  6 -  6) =    -48.77283  eV     1   --> A              
     e(  7 -  7) =    -48.75815  eV     1   --> A              
     e(  8 -  8) =    -48.75765  eV     1   --> A              
     e(  9 -  9) =     -5.59734  eV     1   --> A              
     e( 10 - 10) =     -4.16146  eV     1   --> A              
     e( 11 - 11) =      3.71761  eV     1   --> A              
     e( 12 - 12) =      6.71698  eV     1   --> A              
     e( 13 - 13) =      6.74684  eV     1   --> A              
     e( 14 - 14) =      9.32723  eV     1   --> A              
     e( 15 - 15) =      9.40896  eV     1   --> A              
     e( 16 - 16) =      9.55258  eV     1   --> A              
     e( 17 - 17) =      9.96110  eV     1   --> A              
     e( 18 - 18) =     10.15733  eV     1   --> A              
     e( 19 - 19) =     10.22484  eV     1   --> A              
     e( 20 - 20) =     10.45324  eV     1   --> A              
     e( 21 - 21) =     10.56379  eV     1   --> A              
     e( 22 - 22) =     11.39729  eV     1   --> A              
     e( 23 - 23) =     11.66410  eV     1   --> A              
     e( 24 - 24) =     11.69418  eV     1   --> A              
     e( 25 - 25) =     16.24009  eV     1   --> A              
     e( 26 - 26) =     16.25368  eV     1   --> A              
     e( 27 - 27) =     16.31646  eV     1   --> A              
     e( 28 - 28) =     20.24188  eV     1   --> A              
     e( 29 - 29) =     24.62332  eV     1   --> A              
     e( 30 - 30) =     28.34632  eV     1   --> A              
     e( 31 - 31) =     28.62968  eV     1   --> A              
     e( 32 - 32) =     31.49345  eV     1   --> A              
     e( 33 - 33) =     33.33194  eV     1   --> A              
     e( 34 - 34) =     33.33207  eV     1   --> A              
     e( 35 - 35) =     33.85688  eV     1   --> A              
     e( 36 - 36) =     36.08934  eV     1   --> A              
     e( 37 - 37) =     36.64572  eV     1   --> A              
     e( 38 - 38) =     36.65040  eV     1   --> A              
     e( 39 - 39) =     37.22712  eV     1   --> A              
     e( 40 - 40) =     39.43898  eV     1   --> A              
     e( 41 - 41) =     40.25865  eV     1   --> A              
     e( 42 - 42) =     40.99286  eV     1   --> A              
     e( 43 - 43) =     41.00271  eV     1   --> A              
     e( 44 - 44) =     41.77751  eV     1   --> A              
     e( 45 - 45) =     43.52602  eV     1   --> A              
     e( 46 - 46) =     43.77552  eV     1   --> A              
     e( 47 - 47) =     50.15919  eV     1   --> A              
     e( 48 - 48) =     50.75074  eV     1   --> A              
     e( 49 - 49) =     50.75362  eV     1   --> A              
     e( 50 - 50) =     51.78932  eV     1   --> A              
     e( 51 - 51) =     54.71108  eV     1   --> A              
     e( 52 - 52) =     54.73608  eV     1   --> A              
     e( 53 - 53) =     56.05288  eV     1   --> A              
     e( 54 - 54) =     57.71317  eV     1   --> A              
     e( 55 - 55) =     58.81517  eV     1   --> A              
     e( 56 - 56) =     59.11524  eV     1   --> A              
     e( 57 - 57) =     64.81520  eV     1   --> A              
     e( 58 - 58) =     65.85202  eV     1   --> A              
     e( 59 - 59) =     66.73149  eV     1   --> A              
     e( 60 - 60) =     66.73162  eV     1   --> A              
     e( 61 - 61) =     68.14502  eV     1   --> A              
     e( 62 - 62) =     68.24473  eV     1   --> A              
     e( 63 - 63) =     70.96220  eV     1   --> A              
     e( 64 - 64) =     70.96314  eV     1   --> A              
     e( 65 - 65) =     70.96551  eV     1   --> A              
     e( 66 - 66) =     71.90242  eV     1   --> A              
     e( 67 - 67) =     72.38545  eV     1   --> A              
     e( 68 - 68) =     72.39648  eV     1   --> A              
     e( 69 - 69) =     72.54220  eV     1   --> A              
     e( 70 - 70) =     72.58236  eV     1   --> A              
     e( 71 - 71) =     72.84567  eV     1   --> A              
     e( 72 - 72) =     73.75957  eV     1   --> A              
     e( 73 - 73) =     74.20133  eV     1   --> A              
     e( 74 - 74) =     78.49809  eV     1   --> A              
     e( 75 - 75) =     79.12473  eV     1   --> A              
     e( 76 - 76) =     79.89014  eV     1   --> A              
     e( 77 - 77) =     80.67638  eV     1   --> A              
     e( 78 - 78) =     83.82455  eV     1   --> A              
     e( 79 - 79) =     83.87995  eV     1   --> A              
     e( 80 - 80) =     87.33708  eV     1   --> A              
     e( 81 - 81) =     87.60928  eV     1   --> A              
     e( 82 - 82) =     87.63746  eV     1   --> A              
     e( 83 - 83) =     87.64036  eV     1   --> A              
     e( 84 - 84) =     89.41396  eV     1   --> A              
     e( 85 - 85) =     89.84315  eV     1   --> A              
     e( 86 - 86) =     89.89864  eV     1   --> A              
     e( 87 - 87) =     90.42742  eV     1   --> A              
     e( 88 - 88) =     90.72133  eV     1   --> A              
     e( 89 - 89) =     91.84080  eV     1   --> A              
     e( 90 - 90) =     91.99293  eV     1   --> A              
     e( 91 - 91) =     91.99361  eV     1   --> A              
     e( 92 - 92) =     92.12945  eV     1   --> A              
     e( 93 - 93) =     92.68793  eV     1   --> A              
     e( 94 - 94) =     93.87485  eV     1   --> A              
     e( 95 - 95) =     93.88833  eV     1   --> A              
     e( 96 - 96) =     94.20306  eV     1   --> A              
     e( 97 - 97) =     95.21621  eV     1   --> A              
     e( 98 - 98) =     95.39468  eV     1   --> A              
     e( 99 - 99) =     96.02405  eV     1   --> A              
     e(100 -100) =     96.02659  eV     1   --> A              

 **************************************************************************

 **************************************************************************

                    xk=(   0.00000,  -0.10768,  -0.06594  )

     Band symmetry, C_1 (1)     point group:

     e(  1 -  1) =    -90.44797  eV     1   --> A              
     e(  2 -  2) =    -88.37490  eV     1   --> A              
     e(  3 -  3) =    -50.79660  eV     1   --> A              
     e(  4 -  4) =    -50.78188  eV     1   --> A              
     e(  5 -  5) =    -50.78119  eV     1   --> A              
     e(  6 -  6) =    -48.77291  eV     1   --> A              
     e(  7 -  7) =    -48.75860  eV     1   --> A              
     e(  8 -  8) =    -48.75778  eV     1   --> A              
     e(  9 -  9) =     -5.58694  eV     1   --> A              
     e( 10 - 10) =     -4.16449  eV     1   --> A              
     e( 11 - 11) =      3.75473  eV     1   --> A              
     e( 12 - 12) =      6.70716  eV     1   --> A              
     e( 13 - 13) =      6.75335  eV     1   --> A              
     e( 14 - 14) =      9.23791  eV     1   --> A              
     e( 15 - 15) =      9.37319  eV     1   --> A              
     e( 16 - 16) =      9.53402  eV     1   --> A              
     e( 17 - 17) =      9.88466  eV     1   --> A              
     e( 18 - 18) =     10.14166  eV     1   --> A              
     e( 19 - 19) =     10.22908  eV     1   --> A              
     e( 20 - 20) =     10.48363  eV     1   --> A              
     e( 21 - 21) =     10.61554  eV     1   --> A              
     e( 22 - 22) =     11.39171  eV     1   --> A              
     e( 23 - 23) =     11.67151  eV     1   --> A              
     e( 24 - 24) =     11.71639  eV     1   --> A              
     e( 25 - 25) =     16.22207  eV     1   --> A              
     e( 26 - 26) =     16.24181  eV     1   --> A              
     e( 27 - 27) =     16.40533  eV     1   --> A              
     e( 28 - 28) =     20.32259  eV     1   --> A              
     e( 29 - 29) =     24.60463  eV     1   --> A              
     e( 30 - 30) =     28.23735  eV     1   --> A              
     e( 31 - 31) =     28.66948  eV     1   --> A              
     e( 32 - 32) =     31.21377  eV     1   --> A              
     e( 33 - 33) =     33.28930  eV     1   --> A              
     e( 34 - 34) =     33.28957  eV     1   --> A              
     e( 35 - 35) =     33.99428  eV     1   --> A              
     e( 36 - 36) =     36.24285  eV     1   --> A              
     e( 37 - 37) =     36.53754  eV     1   --> A              
     e( 38 - 38) =     36.54119  eV     1   --> A              
     e( 39 - 39) =     37.40732  eV     1   --> A              
     e( 40 - 40) =     39.16094  eV     1   --> A              
     e( 41 - 41) =     40.27024  eV     1   --> A              
     e( 42 - 42) =     41.20870  eV     1   --> A              
     e( 43 - 43) =     41.21584  eV     1   --> A              
     e( 44 - 44) =     41.92225  eV     1   --> A              
     e( 45 - 45) =     43.57949  eV     1   --> A              
     e( 46 - 46) =     43.95468  eV     1   --> A              
     e( 47 - 47) =     49.97244  eV     1   --> A              
     e( 48 - 48) =     50.74685  eV     1   --> A              
     e( 49 - 49) =     50.74971  eV     1   --> A              
     e( 50 - 50) =     52.01580  eV     1   --> A              
     e( 51 - 51) =     54.65265  eV     1   --> A              
     e( 52 - 52) =     54.68371  eV     1   --> A              
     e( 53 - 53) =     55.90020  eV     1   --> A              
     e( 54 - 54) =     57.92697  eV     1   --> A              
     e( 55 - 55) =     58.72880  eV     1   --> A              
     e( 56 - 56) =     59.21028  eV     1   --> A              
     e( 57 - 57) =     64.46466  eV     1   --> A              
     e( 58 - 58) =     65.92348  eV     1   --> A              
     e( 59 - 59) =     66.22476  eV     1   --> A              
     e( 60 - 60) =     66.22824  eV     1   --> A              
     e( 61 - 61) =     68.17600  eV     1   --> A              
     e( 62 - 62) =     68.43968  eV     1   --> A              
     e( 63 - 63) =     70.96517  eV     1   --> A              
     e( 64 - 64) =     70.98090  eV     1   --> A              
     e( 65 - 65) =     70.98122  eV     1   --> A              
     e( 66 - 66) =     71.50862  eV     1   --> A              
     e( 67 - 67) =     72.23413  eV     1   --> A              
     e( 68 - 68) =     72.64295  eV     1   --> A              
     e( 69 - 69) =     72.91451  eV     1   --> A              
     e( 70 - 70) =     72.96908  eV     1   --> A              
     e( 71 - 71) =     72.97796  eV     1   --> A              
     e( 72 - 72) =     73.87759  eV     1   --> A              
     e( 73 - 73) =     74.21530  eV     1   --> A              
     e( 74 - 74) =     78.67019  eV     1   --> A              
     e( 75 - 75) =     79.02602  eV     1   --> A              
     e( 76 - 76) =     79.83737  eV     1   --> A              
     e( 77 - 77) =     80.63166  eV     1   --> A              
     e( 78 - 78) =     84.27715  eV     1   --> A              
     e( 79 - 79) =     84.34199  eV     1   --> A              
     e( 80 - 80) =     86.70162  eV     1   --> A              
     e( 81 - 81) =     87.37283  eV     1   --> A              
     e( 82 - 82) =     87.40189  eV     1   --> A              
     e( 83 - 83) =     87.40308  eV     1   --> A              
     e( 84 - 84) =     89.16500  eV     1   --> A              
     e( 85 - 85) =     89.41122  eV     1   --> A              
     e( 86 - 86) =     89.48536  eV     1   --> A              
     e( 87 - 87) =     90.19511  eV     1   --> A              
     e( 88 - 88) =     90.48439  eV     1   --> A              
     e( 89 - 89) =     91.30646  eV     1   --> A              
     e( 90 - 90) =     91.58161  eV     1   --> A              
     e( 91 - 91) =     91.58295  eV     1   --> A              
     e( 92 - 92) =     92.35663  eV     1   --> A              
     e( 93 - 93) =     92.42216  eV     1   --> A              
     e( 94 - 94) =     93.91875  eV     1   --> A              
     e( 95 - 95) =     93.92844  eV     1   --> A              
     e( 96 - 96) =     94.48874  eV     1   --> A              
     e( 97 - 97) =     95.48732  eV     1   --> A              
     e( 98 - 98) =     95.73699  eV     1   --> A              
     e( 99 - 99) =     96.42536  eV     1   --> A              
     e(100 -100) =     96.42890  eV     1   --> A              

 **************************************************************************

 **************************************************************************

                    xk=(   0.00000,  -0.12922,  -0.07913  )

     Band symmetry, C_1 (1)     point group:

     e(  1 -  1) =    -90.44803  eV     1   --> A              
     e(  2 -  2) =    -88.37505  eV     1   --> A              
     e(  3 -  3) =    -50.79669  eV     1   --> A              
     e(  4 -  4) =    -50.78235  eV     1   --> A              
     e(  5 -  5) =    -50.78136  eV     1   --> A              
     e(  6 -  6) =    -48.77301  eV     1   --> A              
     e(  7 -  7) =    -48.75914  eV     1   --> A              
     e(  8 -  8) =    -48.75795  eV     1   --> A              
     e(  9 -  9) =     -5.57416  eV     1   --> A              
     e( 10 - 10) =     -4.16808  eV     1   --> A              
     e( 11 - 11) =      3.79967  eV     1   --> A              
     e( 12 - 12) =      6.69545  eV     1   --> A              
     e( 13 - 13) =      6.76117  eV     1   --> A              
     e( 14 - 14) =      9.12859  eV     1   --> A              
     e( 15 - 15) =      9.33103  eV     1   --> A              
     e( 16 - 16) =      9.50698  eV     1   --> A              
     e( 17 - 17) =      9.81580  eV     1   --> A              
     e( 18 - 18) =     10.12949  eV     1   --> A              
     e( 19 - 19) =     10.23429  eV     1   --> A              
     e( 20 - 20) =     10.51333  eV     1   --> A              
     e( 21 - 21) =     10.66300  eV     1   --> A              
     e( 22 - 22) =     11.38478  eV     1   --> A              
     e( 23 - 23) =     11.68058  eV     1   --> A              
     e( 24 - 24) =     11.74215  eV     1   --> A              
     e( 25 - 25) =     16.20212  eV     1   --> A              
     e( 26 - 26) =     16.22795  eV     1   --> A              
     e( 27 - 27) =     16.51003  eV     1   --> A              
     e( 28 - 28) =     20.41805  eV     1   --> A              
     e( 29 - 29) =     24.58199  eV     1   --> A              
     e( 30 - 30) =     28.11252  eV     1   --> A              
     e( 31 - 31) =     28.71745  eV     1   --> A              
     e( 32 - 32) =     30.92246  eV     1   --> A              
     e( 33 - 33) =     33.23337  eV     1   --> A              
     e( 34 - 34) =     33.23384  eV     1   --> A              
     e( 35 - 35) =     34.11618  eV     1   --> A              
     e( 36 - 36) =     36.39731  eV     1   --> A              
     e( 37 - 37) =     36.43136  eV     1   --> A              
     e( 38 - 38) =     36.43797  eV     1   --> A              
     e( 39 - 39) =     37.62352  eV     1   --> A              
     e( 40 - 40) =     38.89745  eV     1   --> A              
     e( 41 - 41) =     40.28276  eV     1   --> A              
     e( 42 - 42) =     41.45288  eV     1   --> A              
     e( 43 - 43) =     41.45842  eV     1   --> A              
     e( 44 - 44) =     42.05271  eV     1   --> A              
     e( 45 - 45) =     43.64397  eV     1   --> A              
     e( 46 - 46) =     44.15690  eV     1   --> A              
     e( 47 - 47) =     49.78159  eV     1   --> A              
     e( 48 - 48) =     50.74211  eV     1   --> A              
     e( 49 - 49) =     50.74497  eV     1   --> A              
     e( 50 - 50) =     52.25585  eV     1   --> A              
     e( 51 - 51) =     54.58987  eV     1   --> A              
     e( 52 - 52) =     54.62095  eV     1   --> A              
     e( 53 - 53) =     55.75845  eV     1   --> A              
     e( 54 - 54) =     58.11750  eV     1   --> A              
     e( 55 - 55) =     58.62764  eV     1   --> A              
     e( 56 - 56) =     59.34436  eV     1   --> A              
     e( 57 - 57) =     64.09896  eV     1   --> A              
     e( 58 - 58) =     65.70137  eV     1   --> A              
     e( 59 - 59) =     65.70914  eV     1   --> A              
     e( 60 - 60) =     66.00127  eV     1   --> A              
     e( 61 - 61) =     68.21384  eV     1   --> A              
     e( 62 - 62) =     68.62115  eV     1   --> A              
     e( 63 - 63) =     70.96293  eV     1   --> A              
     e( 64 - 64) =     70.99888  eV     1   --> A              
     e( 65 - 65) =     71.00351  eV     1   --> A              
     e( 66 - 66) =     71.08414  eV     1   --> A              
     e( 67 - 67) =     71.94203  eV     1   --> A              
     e( 68 - 68) =     72.73446  eV     1   --> A              
     e( 69 - 69) =     72.99044  eV     1   --> A              
     e( 70 - 70) =     73.56262  eV     1   --> A              
     e( 71 - 71) =     73.56510  eV     1   --> A              
     e( 72 - 72) =     74.02358  eV     1   --> A              
     e( 73 - 73) =     74.23050  eV     1   --> A              
     e( 74 - 74) =     78.22324  eV     1   --> A              
     e( 75 - 75) =     79.36978  eV     1   --> A              
     e( 76 - 76) =     80.02459  eV     1   --> A              
     e( 77 - 77) =     80.58352  eV     1   --> A              
     e( 78 - 78) =     84.63019  eV     1   --> A              
     e( 79 - 79) =     84.90611  eV     1   --> A              
     e( 80 - 80) =     86.06672  eV     1   --> A              
     e( 81 - 81) =     87.07288  eV     1   --> A              
     e( 82 - 82) =     87.07498  eV     1   --> A              
     e( 83 - 83) =     87.07600  eV     1   --> A              
     e( 84 - 84) =     88.87494  eV     1   --> A              
     e( 85 - 85) =     88.99746  eV     1   --> A              
     e( 86 - 86) =     89.11942  eV     1   --> A              
     e( 87 - 87) =     89.95413  eV     1   --> A              
     e( 88 - 88) =     90.20757  eV     1   --> A              
     e( 89 - 89) =     90.76670  eV     1   --> A              
     e( 90 - 90) =     91.18217  eV     1   --> A              
     e( 91 - 91) =     91.18315  eV     1   --> A              
     e( 92 - 92) =     92.12417  eV     1   --> A              
     e( 93 - 93) =     92.65829  eV     1   --> A              
     e( 94 - 94) =     93.95757  eV     1   --> A              
     e( 95 - 95) =     93.96615  eV     1   --> A              
     e( 96 - 96) =     94.80947  eV     1   --> A              
     e( 97 - 97) =     95.62153  eV     1   --> A              
     e( 98 - 98) =     96.17154  eV     1   --> A              
     e( 99 - 99) =     96.81663  eV     1   --> A              
     e(100 -100) =     96.82192  eV     1   --> A              

 **************************************************************************

 **************************************************************************

                    xk=(   0.00000,  -0.15076,  -0.09232  )

     Band symmetry, C_1 (1)     point group:

     e(  1 -  1) =    -90.44809  eV     1   --> A              
     e(  2 -  2) =    -88.37521  eV     1   --> A              
     e(  3 -  3) =    -50.79680  eV     1   --> A              
     e(  4 -  4) =    -50.78291  eV     1   --> A              
     e(  5 -  5) =    -50.78155  eV     1   --> A              
     e(  6 -  6) =    -48.77312  eV     1   --> A              
     e(  7 -  7) =    -48.75977  eV     1   --> A              
     e(  8 -  8) =    -48.75813  eV     1   --> A              
     e(  9 -  9) =     -5.55895  eV     1   --> A              
     e( 10 - 10) =     -4.17218  eV     1   --> A              
     e( 11 - 11) =      3.85215  eV     1   --> A              
     e( 12 - 12) =      6.68201  eV     1   --> A              
     e( 13 - 13) =      6.77021  eV     1   --> A              
     e( 14 - 14) =      9.00104  eV     1   --> A              
     e( 15 - 15) =      9.28347  eV     1   --> A              
     e( 16 - 16) =      9.46673  eV     1   --> A              
     e( 17 - 17) =      9.75982  eV     1   --> A              
     e( 18 - 18) =     10.12101  eV     1   --> A              
     e( 19 - 19) =     10.24045  eV     1   --> A              
     e( 20 - 20) =     10.54181  eV     1   --> A              
     e( 21 - 21) =     10.70592  eV     1   --> A              
     e( 22 - 22) =     11.37657  eV     1   --> A              
     e( 23 - 23) =     11.69126  eV     1   --> A              
     e( 24 - 24) =     11.77074  eV     1   --> A              
     e( 25 - 25) =     16.18119  eV     1   --> A              
     e( 26 - 26) =     16.21246  eV     1   --> A              
     e( 27 - 27) =     16.62869  eV     1   --> A              
     e( 28 - 28) =     20.52663  eV     1   --> A              
     e( 29 - 29) =     24.55552  eV     1   --> A              
     e( 30 - 30) =     27.97548  eV     1   --> A              
     e( 31 - 31) =     28.77319  eV     1   --> A              
     e( 32 - 32) =     30.62427  eV     1   --> A              
     e( 33 - 33) =     33.16246  eV     1   --> A              
     e( 34 - 34) =     33.16321  eV     1   --> A              
     e( 35 - 35) =     34.22139  eV     1   --> A              
     e( 36 - 36) =     36.32338  eV     1   --> A              
     e( 37 - 37) =     36.32843  eV     1   --> A              
     e( 38 - 38) =     36.56171  eV     1   --> A              
     e( 39 - 39) =     37.87238  eV     1   --> A              
     e( 40 - 40) =     38.67209  eV     1   --> A              
     e( 41 - 41) =     40.29728  eV     1   --> A              
     e( 42 - 42) =     41.71806  eV     1   --> A              
     e( 43 - 43) =     41.72364  eV     1   --> A              
     e( 44 - 44) =     42.17275  eV     1   --> A              
     e( 45 - 45) =     43.71900  eV     1   --> A              
     e( 46 - 46) =     44.37325  eV     1   --> A              
     e( 47 - 47) =     49.58651  eV     1   --> A              
     e( 48 - 48) =     50.73659  eV     1   --> A              
     e( 49 - 49) =     50.73944  eV     1   --> A              
     e( 50 - 50) =     52.50999  eV     1   --> A              
     e( 51 - 51) =     54.52710  eV     1   --> A              
     e( 52 - 52) =     54.54855  eV     1   --> A              
     e( 53 - 53) =     55.62590  eV     1   --> A              
     e( 54 - 54) =     58.27589  eV     1   --> A              
     e( 55 - 55) =     58.51333  eV     1   --> A              
     e( 56 - 56) =     59.52344  eV     1   --> A              
     e( 57 - 57) =     63.72707  eV     1   --> A              
     e( 58 - 58) =     65.18888  eV     1   --> A              
     e( 59 - 59) =     65.19305  eV     1   --> A              
     e( 60 - 60) =     66.03925  eV     1   --> A              
     e( 61 - 61) =     68.25853  eV     1   --> A              
     e( 62 - 62) =     68.78588  eV     1   --> A              
     e( 63 - 63) =     70.64923  eV     1   --> A              
     e( 64 - 64) =     70.95774  eV     1   --> A              
     e( 65 - 65) =     71.02994  eV     1   --> A              
     e( 66 - 66) =     71.03154  eV     1   --> A              
     e( 67 - 67) =     71.65989  eV     1   --> A              
     e( 68 - 68) =     72.81690  eV     1   --> A              
     e( 69 - 69) =     73.06479  eV     1   --> A              
     e( 70 - 70) =     74.16083  eV     1   --> A              
     e( 71 - 71) =     74.16999  eV     1   --> A              
     e( 72 - 72) =     74.20561  eV     1   --> A              
     e( 73 - 73) =     74.24581  eV     1   --> A              
     e( 74 - 74) =     77.80389  eV     1   --> A              
     e( 75 - 75) =     79.42674  eV     1   --> A              
     e( 76 - 76) =     80.52937  eV     1   --> A              
     e( 77 - 77) =     80.54583  eV     1   --> A              
     e( 78 - 78) =     84.82446  eV     1   --> A              
     e( 79 - 79) =     85.50495  eV     1   --> A              
     e( 80 - 80) =     85.54197  eV     1   --> A              
     e( 81 - 81) =     86.64712  eV     1   --> A              
     e( 82 - 82) =     86.64832  eV     1   --> A              
     e( 83 - 83) =     86.71361  eV     1   --> A              
     e( 84 - 84) =     88.56054  eV     1   --> A              
     e( 85 - 85) =     88.62811  eV     1   --> A              
     e( 86 - 86) =     88.81675  eV     1   --> A              
     e( 87 - 87) =     89.70837  eV     1   --> A              
     e( 88 - 88) =     89.94375  eV     1   --> A              
     e( 89 - 89) =     90.22670  eV     1   --> A              
     e( 90 - 90) =     90.79782  eV     1   --> A              
     e( 91 - 91) =     90.79838  eV     1   --> A              
     e( 92 - 92) =     91.82713  eV     1   --> A              
     e( 93 - 93) =     92.96399  eV     1   --> A              
     e( 94 - 94) =     93.99400  eV     1   --> A              
     e( 95 - 95) =     94.00302  eV     1   --> A              
     e( 96 - 96) =     95.15485  eV     1   --> A              
     e( 97 - 97) =     95.71083  eV     1   --> A              
     e( 98 - 98) =     96.58883  eV     1   --> A              
     e( 99 - 99) =     96.73060  eV     1   --> A              
     e(100 -100) =     96.73454  eV     1   --> A              

 **************************************************************************

 **************************************************************************

                    xk=(   0.00000,  -0.17229,  -0.10551  )

     Band symmetry, C_1 (1)     point group:

     e(  1 -  1) =    -90.44816  eV     1   --> A              
     e(  2 -  2) =    -88.37538  eV     1   --> A              
     e(  3 -  3) =    -50.79693  eV     1   --> A              
     e(  4 -  4) =    -50.78356  eV     1   --> A              
     e(  5 -  5) =    -50.78176  eV     1   --> A              
     e(  6 -  6) =    -48.77325  eV     1   --> A              
     e(  7 -  7) =    -48.76049  eV     1   --> A              
     e(  8 -  8) =    -48.75835  eV     1   --> A              
     e(  9 -  9) =     -5.54128  eV     1   --> A              
     e( 10 - 10) =     -4.17672  eV     1   --> A              
     e( 11 - 11) =      3.91187  eV     1   --> A              
     e( 12 - 12) =      6.66706  eV     1   --> A              
     e( 13 - 13) =      6.78036  eV     1   --> A              
     e( 14 - 14) =      8.85728  eV     1   --> A              
     e( 15 - 15) =      9.23158  eV     1   --> A              
     e( 16 - 16) =      9.41060  eV     1   --> A              
     e( 17 - 17) =      9.71965  eV     1   --> A              
     e( 18 - 18) =     10.11604  eV     1   --> A              
     e( 19 - 19) =     10.24751  eV     1   --> A              
     e( 20 - 20) =     10.56879  eV     1   --> A              
     e( 21 - 21) =     10.74413  eV     1   --> A              
     e( 22 - 22) =     11.36722  eV     1   --> A              
     e( 23 - 23) =     11.70342  eV     1   --> A              
     e( 24 - 24) =     11.80135  eV     1   --> A              
     e( 25 - 25) =     16.16021  eV     1   --> A              
     e( 26 - 26) =     16.19576  eV     1   --> A              
     e( 27 - 27) =     16.75941  eV     1   --> A              
     e( 28 - 28) =     20.64654  eV     1   --> A              
     e( 29 - 29) =     24.52544  eV     1   --> A              
     e( 30 - 30) =     27.82970  eV     1   --> A              
     e( 31 - 31) =     28.83626  eV     1   --> A              
     e( 32 - 32) =     30.32237  eV     1   --> A              
     e( 33 - 33) =     33.07521  eV     1   --> A              
     e( 34 - 34) =     33.07628  eV     1   --> A              
     e( 35 - 35) =     34.31088  eV     1   --> A              
     e( 36 - 36) =     36.23448  eV     1   --> A              
     e( 37 - 37) =     36.23840  eV     1   --> A              
     e( 38 - 38) =     36.66554  eV     1   --> A              
     e( 39 - 39) =     38.15004  eV     1   --> A              
     e( 40 - 40) =     38.52058  eV     1   --> A              
     e( 41 - 41) =     40.31475  eV     1   --> A              
     e( 42 - 42) =     41.99629  eV     1   --> A              
     e( 43 - 43) =     42.00589  eV     1   --> A              
     e( 44 - 44) =     42.28877  eV     1   --> A              
     e( 45 - 45) =     43.80411  eV     1   --> A              
     e( 46 - 46) =     44.59547  eV     1   --> A              
     e( 47 - 47) =     49.38709  eV     1   --> A              
     e( 48 - 48) =     50.73039  eV     1   --> A              
     e( 49 - 49) =     50.73323  eV     1   --> A              
     e( 50 - 50) =     52.77879  eV     1   --> A              
     e( 51 - 51) =     54.46739  eV     1   --> A              
     e( 52 - 52) =     54.46866  eV     1   --> A              
     e( 53 - 53) =     55.50082  eV     1   --> A              
     e( 54 - 54) =     58.38719  eV     1   --> A              
     e( 55 - 55) =     58.40000  eV     1   --> A              
     e( 56 - 56) =     59.74583  eV     1   --> A              
     e( 57 - 57) =     63.35667  eV     1   --> A              
     e( 58 - 58) =     64.67804  eV     1   --> A              
     e( 59 - 59) =     64.68156  eV     1   --> A              
     e( 60 - 60) =     66.03599  eV     1   --> A              
     e( 61 - 61) =     68.31006  eV     1   --> A              
     e( 62 - 62) =     68.93414  eV     1   --> A              
     e( 63 - 63) =     70.24049  eV     1   --> A              
     e( 64 - 64) =     70.94839  eV     1   --> A              
     e( 65 - 65) =     71.06017  eV     1   --> A              
     e( 66 - 66) =     71.06067  eV     1   --> A              
     e( 67 - 67) =     71.40001  eV     1   --> A              
     e( 68 - 68) =     72.87258  eV     1   --> A              
     e( 69 - 69) =     73.13907  eV     1   --> A              
     e( 70 - 70) =     74.25914  eV     1   --> A              
     e( 71 - 71) =     74.38819  eV     1   --> A              
     e( 72 - 72) =     74.78505  eV     1   --> A              
     e( 73 - 73) =     74.78801  eV     1   --> A              
     e( 74 - 74) =     77.43222  eV     1   --> A              
     e( 75 - 75) =     79.41836  eV     1   --> A              
     e( 76 - 76) =     80.46751  eV     1   --> A              
     e( 77 - 77) =     81.17219  eV     1   --> A              
     e( 78 - 78) =     84.48314  eV     1   --> A              
     e( 79 - 79) =     85.49711  eV     1   --> A              
     e( 80 - 80) =     86.06048  eV     1   --> A              
     e( 81 - 81) =     86.12763  eV     1   --> A              
     e( 82 - 82) =     86.19919  eV     1   --> A              
     e( 83 - 83) =     86.30238  eV     1   --> A              
     e( 84 - 84) =     88.25727  eV     1   --> A              
     e( 85 - 85) =     88.30468  eV     1   --> A              
     e( 86 - 86) =     88.55144  eV     1   --> A              
     e( 87 - 87) =     89.46892  eV     1   --> A              
     e( 88 - 88) =     89.68930  eV     1   --> A              
     e( 89 - 89) =     89.69862  eV     1   --> A              
     e( 90 - 90) =     90.43089  eV     1   --> A              
     e( 91 - 91) =     90.43110  eV     1   --> A              
     e( 92 - 92) =     91.54152  eV     1   --> A              
     e( 93 - 93) =     93.25992  eV     1   --> A              
     e( 94 - 94) =     94.02897  eV     1   --> A              
     e( 95 - 95) =     94.03997  eV     1   --> A              
     e( 96 - 96) =     95.51623  eV     1   --> A              
     e( 97 - 97) =     95.75218  eV     1   --> A              
     e( 98 - 98) =     96.41188  eV     1   --> A              
     e( 99 - 99) =     96.41851  eV     1   --> A              
     e(100 -100) =     96.98388  eV     1   --> A              

 **************************************************************************

 **************************************************************************

                    xk=(   0.00000,  -0.19383,  -0.11870  )

     Band symmetry, C_1 (1)     point group:

     e(  1 -  1) =    -90.44823  eV     1   --> A              
     e(  2 -  2) =    -88.37556  eV     1   --> A              
     e(  3 -  3) =    -50.79707  eV     1   --> A              
     e(  4 -  4) =    -50.78428  eV     1   --> A              
     e(  5 -  5) =    -50.78198  eV     1   --> A              
     e(  6 -  6) =    -48.77339  eV     1   --> A              
     e(  7 -  7) =    -48.76130  eV     1   --> A              
     e(  8 -  8) =    -48.75859  eV     1   --> A              
     e(  9 -  9) =     -5.52109  eV     1   --> A              
     e( 10 - 10) =     -4.18164  eV     1   --> A              
     e( 11 - 11) =      3.97846  eV     1   --> A              
     e( 12 - 12) =      6.65084  eV     1   --> A              
     e( 13 - 13) =      6.79151  eV     1   --> A              
     e( 14 - 14) =      8.69946  eV     1   --> A              
     e( 15 - 15) =      9.17644  eV     1   --> A              
     e( 16 - 16) =      9.34033  eV     1   --> A              
     e( 17 - 17) =      9.69358  eV     1   --> A              
     e( 18 - 18) =     10.11425  eV     1   --> A              
     e( 19 - 19) =     10.25540  eV     1   --> A              
     e( 20 - 20) =     10.59420  eV     1   --> A              
     e( 21 - 21) =     10.77757  eV     1   --> A              
     e( 22 - 22) =     11.35696  eV     1   --> A              
     e( 23 - 23) =     11.71688  eV     1   --> A              
     e( 24 - 24) =     11.83314  eV     1   --> A              
     e( 25 - 25) =     16.14006  eV     1   --> A              
     e( 26 - 26) =     16.17830  eV     1   --> A              
     e( 27 - 27) =     16.90032  eV     1   --> A              
     e( 28 - 28) =     20.77585  eV     1   --> A              
     e( 29 - 29) =     24.49208  eV     1   --> A              
     e( 30 - 30) =     27.67841  eV     1   --> A              
     e( 31 - 31) =     28.90614  eV     1   --> A              
     e( 32 - 32) =     30.01899  eV     1   --> A              
     e( 33 - 33) =     32.97080  eV     1   --> A              
     e( 34 - 34) =     32.97225  eV     1   --> A              
     e( 35 - 35) =     34.38663  eV     1   --> A              
     e( 36 - 36) =     36.16237  eV     1   --> A              
     e( 37 - 37) =     36.16566  eV     1   --> A              
     e( 38 - 38) =     36.67829  eV     1   --> A              
     e( 39 - 39) =     38.45247  eV     1   --> A              
     e( 40 - 40) =     38.48606  eV     1   --> A              
     e( 41 - 41) =     40.33605  eV     1   --> A              
     e( 42 - 42) =     42.26704  eV     1   --> A              
     e( 43 - 43) =     42.30053  eV     1   --> A              
     e( 44 - 44) =     42.42035  eV     1   --> A              
     e( 45 - 45) =     43.89884  eV     1   --> A              
     e( 46 - 46) =     44.81642  eV     1   --> A              
     e( 47 - 47) =     49.18341  eV     1   --> A              
     e( 48 - 48) =     50.72370  eV     1   --> A              
     e( 49 - 49) =     50.72652  eV     1   --> A              
     e( 50 - 50) =     53.06272  eV     1   --> A              
     e( 51 - 51) =     54.37851  eV     1   --> A              
     e( 52 - 52) =     54.41853  eV     1   --> A              
     e( 53 - 53) =     55.38171  eV     1   --> A              
     e( 54 - 54) =     58.25014  eV     1   --> A              
     e( 55 - 55) =     58.49444  eV     1   --> A              
     e( 56 - 56) =     60.00077  eV     1   --> A              
     e( 57 - 57) =     62.99642  eV     1   --> A              
     e( 58 - 58) =     64.17476  eV     1   --> A              
     e( 59 - 59) =     64.17806  eV     1   --> A              
     e( 60 - 60) =     65.97009  eV     1   --> A              
     e( 61 - 61) =     68.36840  eV     1   --> A              
     e( 62 - 62) =     69.06815  eV     1   --> A              
     e( 63 - 63) =     69.85414  eV     1   --> A              
     e( 64 - 64) =     70.93348  eV     1   --> A              
     e( 65 - 65) =     71.09218  eV     1   --> A              
     e( 66 - 66) =     71.09412  eV     1   --> A              
     e( 67 - 67) =     71.18758  eV     1   --> A              
     e( 68 - 68) =     72.88015  eV     1   --> A              
     e( 69 - 69) =     73.20978  eV     1   --> A              
     e( 70 - 70) =     74.26946  eV     1   --> A              
     e( 71 - 71) =     74.60395  eV     1   --> A              
     e( 72 - 72) =     75.40319  eV     1   --> A              
     e( 73 - 73) =     75.40543  eV     1   --> A              
     e( 74 - 74) =     77.12917  eV     1   --> A              
     e( 75 - 75) =     79.41409  eV     1   --> A              
     e( 76 - 76) =     80.39627  eV     1   --> A              
     e( 77 - 77) =     81.82741  eV     1   --> A              
     e( 78 - 78) =     83.86964  eV     1   --> A              
     e( 79 - 79) =     85.52601  eV     1   --> A              
     e( 80 - 80) =     85.53015  eV     1   --> A              
     e( 81 - 81) =     85.66988  eV     1   --> A              
     e( 82 - 82) =     85.85765  eV     1   --> A              
     e( 83 - 83) =     86.77643  eV     1   --> A              
     e( 84 - 84) =     87.97282  eV     1   --> A              
     e( 85 - 85) =     88.01247  eV     1   --> A              
     e( 86 - 86) =     88.31614  eV     1   --> A              
     e( 87 - 87) =     89.15620  eV     1   --> A              
     e( 88 - 88) =     89.25019  eV     1   --> A              
     e( 89 - 89) =     89.45985  eV     1   --> A              
     e( 90 - 91) =     90.08342  eV     2   -->   2 A              
     e( 92 - 92) =     91.28418  eV     1   --> A              
     e( 93 - 93) =     93.53518  eV     1   --> A              
     e( 94 - 94) =     94.06257  eV     1   --> A              
     e( 95 - 95) =     94.07807  eV     1   --> A              
     e( 96 - 96) =     95.74199  eV     1   --> A              
     e( 97 - 97) =     95.87250  eV     1   --> A              
     e( 98 - 98) =     96.11277  eV     1   --> A              
     e( 99 - 99) =     96.13909  eV     1   --> A              
     e(100 -100) =     97.35681  eV     1   --> A              

 **************************************************************************

 **************************************************************************

                    xk=(   0.00000,  -0.21537,  -0.13188  )

     Band symmetry, C_1 (1)     point group:

     e(  1 -  1) =    -90.44831  eV     1   --> A              
     e(  2 -  2) =    -88.37574  eV     1   --> A              
     e(  3 -  3) =    -50.79723  eV     1   --> A              
     e(  4 -  4) =    -50.78507  eV     1   --> A              
     e(  5 -  5) =    -50.78223  eV     1   --> A              
     e(  6 -  6) =    -48.77354  eV     1   --> A              
     e(  7 -  7) =    -48.76218  eV     1   --> A              
     e(  8 -  8) =    -48.75885  eV     1   --> A              
     e(  9 -  9) =     -5.49835  eV     1   --> A              
     e( 10 - 10) =     -4.18685  eV     1   --> A              
     e( 11 - 11) =      4.05150  eV     1   --> A              
     e( 12 - 12) =      6.63367  eV     1   --> A              
     e( 13 - 13) =      6.80351  eV     1   --> A              
     e( 14 - 14) =      8.52972  eV     1   --> A              
     e( 15 - 15) =      9.11909  eV     1   --> A              
     e( 16 - 16) =      9.26006  eV     1   --> A              
     e( 17 - 17) =      9.67741  eV     1   --> A              
     e( 18 - 18) =     10.11521  eV     1   --> A              
     e( 19 - 19) =     10.26400  eV     1   --> A              
     e( 20 - 20) =     10.61808  eV     1   --> A              
     e( 21 - 21) =     10.80619  eV     1   --> A              
     e( 22 - 22) =     11.34608  eV     1   --> A              
     e( 23 - 23) =     11.73142  eV     1   --> A              
     e( 24 - 24) =     11.86528  eV     1   --> A              
     e( 25 - 25) =     16.12150  eV     1   --> A              
     e( 26 - 26) =     16.16056  eV     1   --> A              
     e( 27 - 27) =     17.04965  eV     1   --> A              
     e( 28 - 28) =     20.91253  eV     1   --> A              
     e( 29 - 29) =     24.45589  eV     1   --> A              
     e( 30 - 30) =     27.52453  eV     1   --> A              
     e( 31 - 31) =     28.98229  eV     1   --> A              
     e( 32 - 32) =     29.71588  eV     1   --> A              
     e( 33 - 33) =     32.84923  eV     1   --> A              
     e( 34 - 34) =     32.85109  eV     1   --> A              
     e( 35 - 35) =     34.45096  eV     1   --> A              
     e( 36 - 36) =     36.11016  eV     1   --> A              
     e( 37 - 37) =     36.11303  eV     1   --> A              
     e( 38 - 38) =     36.57958  eV     1   --> A              
     e( 39 - 39) =     38.58764  eV     1   --> A              
     e( 40 - 40) =     38.77588  eV     1   --> A              
     e( 41 - 41) =     40.36197  eV     1   --> A              
     e( 42 - 42) =     42.44990  eV     1   --> A              
     e( 43 - 43) =     42.60356  eV     1   --> A              
     e( 44 - 44) =     42.64678  eV     1   --> A              
     e( 45 - 45) =     44.00277  eV     1   --> A              
     e( 46 - 46) =     45.03024  eV     1   --> A              
     e( 47 - 47) =     48.97583  eV     1   --> A              
     e( 48 - 48) =     50.71680  eV     1   --> A              
     e( 49 - 49) =     50.71961  eV     1   --> A              
     e( 50 - 50) =     53.36199  eV     1   --> A              
     e( 51 - 51) =     54.28300  eV     1   --> A              
     e( 52 - 52) =     54.38020  eV     1   --> A              
     e( 53 - 53) =     55.26750  eV     1   --> A              
     e( 54 - 54) =     58.10262  eV     1   --> A              
     e( 55 - 55) =     58.56644  eV     1   --> A              
     e( 56 - 56) =     60.26952  eV     1   --> A              
     e( 57 - 57) =     62.65963  eV     1   --> A              
     e( 58 - 58) =     63.68180  eV     1   --> A              
     e( 59 - 59) =     63.68504  eV     1   --> A              
     e( 60 - 60) =     65.82837  eV     1   --> A              
     e( 61 - 61) =     68.43347  eV     1   --> A              
     e( 62 - 62) =     69.19096  eV     1   --> A              
     e( 63 - 63) =     69.48144  eV     1   --> A              
     e( 64 - 64) =     70.91146  eV     1   --> A              
     e( 65 - 65) =     71.04110  eV     1   --> A              
     e( 66 - 66) =     71.13167  eV     1   --> A              
     e( 67 - 67) =     71.13610  eV     1   --> A              
     e( 68 - 68) =     72.81761  eV     1   --> A              
     e( 69 - 69) =     73.27425  eV     1   --> A              
     e( 70 - 70) =     74.27454  eV     1   --> A              
     e( 71 - 71) =     74.83614  eV     1   --> A              
     e( 72 - 72) =     76.02026  eV     1   --> A              
     e( 73 - 73) =     76.02203  eV     1   --> A              
     e( 74 - 74) =     76.91297  eV     1   --> A              
     e( 75 - 75) =     79.42549  eV     1   --> A              
     e( 76 - 76) =     80.31343  eV     1   --> A              
     e( 77 - 77) =     82.49331  eV     1   --> A              
     e( 78 - 78) =     83.23233  eV     1   --> A              
     e( 79 - 79) =     84.89625  eV     1   --> A              
     e( 80 - 80) =     84.89774  eV     1   --> A              
     e( 81 - 81) =     85.36222  eV     1   --> A              
     e( 82 - 82) =     85.80612  eV     1   --> A              
     e( 83 - 83) =     87.35508  eV     1   --> A              
     e( 84 - 84) =     87.69956  eV     1   --> A              
     e( 85 - 85) =     87.73456  eV     1   --> A              
     e( 86 - 86) =     88.16655  eV     1   --> A              
     e( 87 - 87) =     88.62884  eV     1   --> A              
     e( 88 - 88) =     89.03735  eV     1   --> A              
     e( 89 - 89) =     89.24068  eV     1   --> A              
     e( 90 - 91) =     89.75748  eV     2   -->   2 A              
     e( 92 - 92) =     91.06843  eV     1   --> A              
     e( 93 - 93) =     93.78001  eV     1   --> A              
     e( 94 - 94) =     94.09450  eV     1   --> A              
     e( 95 - 95) =     94.12054  eV     1   --> A              
     e( 96 - 96) =     95.68089  eV     1   --> A              
     e( 97 - 97) =     95.82819  eV     1   --> A              
     e( 98 - 98) =     95.84423  eV     1   --> A              
     e( 99 - 99) =     96.29702  eV     1   --> A              
     e(100 -100) =     97.71125  eV     1   --> A              

 **************************************************************************

 **************************************************************************

                    xk=(   0.00000,  -0.23690,  -0.14507  )

     Band symmetry, C_1 (1)     point group:

     e(  1 -  1) =    -90.44838  eV     1   --> A              
     e(  2 -  2) =    -88.37592  eV     1   --> A              
     e(  3 -  3) =    -50.79740  eV     1   --> A              
     e(  4 -  4) =    -50.78593  eV     1   --> A              
     e(  5 -  5) =    -50.78249  eV     1   --> A              
     e(  6 -  6) =    -48.77372  eV     1   --> A              
     e(  7 -  7) =    -48.76312  eV     1   --> A              
     e(  8 -  8) =    -48.75913  eV     1   --> A              
     e(  9 -  9) =     -5.47301  eV     1   --> A              
     e( 10 - 10) =     -4.19228  eV     1   --> A              
     e( 11 - 11) =      4.13051  eV     1   --> A              
     e( 12 - 12) =      6.61587  eV     1   --> A              
     e( 13 - 13) =      6.81619  eV     1   --> A              
     e( 14 - 14) =      8.35002  eV     1   --> A              
     e( 15 - 15) =      9.06052  eV     1   --> A              
     e( 16 - 16) =      9.17346  eV     1   --> A              
     e( 17 - 17) =      9.66747  eV     1   --> A              
     e( 18 - 18) =     10.11851  eV     1   --> A              
     e( 19 - 19) =     10.27319  eV     1   --> A              
     e( 20 - 20) =     10.64054  eV     1   --> A              
     e( 21 - 21) =     10.83002  eV     1   --> A              
     e( 22 - 22) =     11.33494  eV     1   --> A              
     e( 23 - 23) =     11.74678  eV     1   --> A              
     e( 24 - 24) =     11.89696  eV     1   --> A              
     e( 25 - 25) =     16.10519  eV     1   --> A              
     e( 26 - 26) =     16.14303  eV     1   --> A              
     e( 27 - 27) =     17.20570  eV     1   --> A              
     e( 28 - 28) =     21.05436  eV     1   --> A              
     e( 29 - 29) =     24.41750  eV     1   --> A              
     e( 30 - 30) =     27.37065  eV     1   --> A              
     e( 31 - 31) =     29.06410  eV     1   --> A              
     e( 32 - 32) =     29.41440  eV     1   --> A              
     e( 33 - 33) =     32.71130  eV     1   --> A              
     e( 34 - 34) =     32.71359  eV     1   --> A              
     e( 35 - 35) =     34.50616  eV     1   --> A              
     e( 36 - 36) =     36.07907  eV     1   --> A              
     e( 37 - 37) =     36.08191  eV     1   --> A              
     e( 38 - 38) =     36.39181  eV     1   --> A              
     e( 39 - 39) =     38.80213  eV     1   --> A              
     e( 40 - 40) =     39.11659  eV     1   --> A              
     e( 41 - 41) =     40.39331  eV     1   --> A              
     e( 42 - 42) =     42.56804  eV     1   --> A              
     e( 43 - 43) =     42.91129  eV     1   --> A              
     e( 44 - 44) =     42.94350  eV     1   --> A              
     e( 45 - 45) =     44.11557  eV     1   --> A              
     e( 46 - 46) =     45.23223  eV     1   --> A              
     e( 47 - 47) =     48.76502  eV     1   --> A              
     e( 48 - 48) =     50.71014  eV     1   --> A              
     e( 49 - 49) =     50.71293  eV     1   --> A              
     e( 50 - 50) =     53.67645  eV     1   --> A              
     e( 51 - 51) =     54.18210  eV     1   --> A              
     e( 52 - 52) =     54.35658  eV     1   --> A              
     e( 53 - 53) =     55.15762  eV     1   --> A              
     e( 54 - 54) =     57.94458  eV     1   --> A              
     e( 55 - 55) =     58.62237  eV     1   --> A              
     e( 56 - 56) =     60.52063  eV     1   --> A              
     e( 57 - 57) =     62.37275  eV     1   --> A              
     e( 58 - 58) =     63.20121  eV     1   --> A              
     e( 59 - 59) =     63.20446  eV     1   --> A              
     e( 60 - 60) =     65.60920  eV     1   --> A              
     e( 61 - 61) =     68.50510  eV     1   --> A              
     e( 62 - 62) =     69.10715  eV     1   --> A              
     e( 63 - 63) =     69.30560  eV     1   --> A              
[...]
     e( 96 - 96) =     94.06725  eV     1   --> A              
     e( 97 - 97) =     94.79103  eV     1   --> A              
     e( 98 - 98) =     94.99559  eV     1   --> A              
     e( 99 - 99) =     95.20653  eV     1   --> A              
     e(100 -100) =     95.88149  eV     1   --> A              

 **************************************************************************

 **************************************************************************

                    xk=(   0.00781,  -0.02591,  -0.04231  )

     Band symmetry, C_1 (1)     point group:

     e(  1 -  1) =    -90.44784  eV     1   --> A              
     e(  2 -  2) =    -88.37459  eV     1   --> A              
     e(  3 -  3) =    -50.79641  eV     1   --> A              
     e(  4 -  4) =    -50.78120  eV     1   --> A              
     e(  5 -  5) =    -50.78065  eV     1   --> A              
     e(  6 -  6) =    -48.77273  eV     1   --> A              
     e(  7 -  7) =    -48.75765  eV     1   --> A              
     e(  8 -  8) =    -48.75740  eV     1   --> A              
     e(  9 -  9) =     -5.61117  eV     1   --> A              
     e( 10 - 10) =     -4.15606  eV     1   --> A              
     e( 11 - 11) =      3.66608  eV     1   --> A              
     e( 12 - 12) =      6.72980  eV     1   --> A              
     e( 13 - 13) =      6.73745  eV     1   --> A              
     e( 14 - 14) =      9.44459  eV     1   --> A              
     e( 15 - 15) =      9.45107  eV     1   --> A              
     e( 16 - 16) =      9.58212  eV     1   --> A              
     e( 17 - 17) =     10.10825  eV     1   --> A              
     e( 18 - 18) =     10.20827  eV     1   --> A              
     e( 19 - 19) =     10.23106  eV     1   --> A              
     e( 20 - 20) =     10.37678  eV     1   --> A              
     e( 21 - 21) =     10.45325  eV     1   --> A              
     e( 22 - 22) =     11.40479  eV     1   --> A              
     e( 23 - 23) =     11.65335  eV     1   --> A              
     e( 24 - 24) =     11.66345  eV     1   --> A              
     e( 25 - 25) =     16.19211  eV     1   --> A              
     e( 26 - 26) =     16.26337  eV     1   --> A              
     e( 27 - 27) =     16.27388  eV     1   --> A              
     e( 28 - 28) =     20.13401  eV     1   --> A              
     e( 29 - 29) =     24.64673  eV     1   --> A              
     e( 30 - 30) =     28.49574  eV     1   --> A              
     e( 31 - 31) =     28.57468  eV     1   --> A              
     e( 32 - 32) =     31.98462  eV     1   --> A              
     e( 33 - 33) =     33.33974  eV     1   --> A              
     e( 34 - 34) =     33.40451  eV     1   --> A              
     e( 35 - 35) =     33.58504  eV     1   --> A              
     e( 36 - 36) =     35.86977  eV     1   --> A              
     e( 37 - 37) =     36.74659  eV     1   --> A              
     e( 38 - 38) =     36.90195  eV     1   --> A              
     e( 39 - 39) =     36.99357  eV     1   --> A              
     e( 40 - 40) =     39.98271  eV     1   --> A              
     e( 41 - 41) =     40.20062  eV     1   --> A              
     e( 42 - 42) =     40.64178  eV     1   --> A              
     e( 43 - 43) =     40.73185  eV     1   --> A              
     e( 44 - 44) =     41.47517  eV     1   --> A              
     e( 45 - 45) =     43.46511  eV     1   --> A              
     e( 46 - 46) =     43.49666  eV     1   --> A              
     e( 47 - 47) =     50.52190  eV     1   --> A              
     e( 48 - 48) =     50.74960  eV     1   --> A              
     e( 49 - 49) =     50.76164  eV     1   --> A              
     e( 50 - 50) =     51.37780  eV     1   --> A              
     e( 51 - 51) =     54.77707  eV     1   --> A              
     e( 52 - 52) =     54.83349  eV     1   --> A              
     e( 53 - 53) =     56.63070  eV     1   --> A              
     e( 54 - 54) =     57.02720  eV     1   --> A              
     e( 55 - 55) =     58.96528  eV     1   --> A              
     e( 56 - 56) =     58.99846  eV     1   --> A              
     e( 57 - 57) =     65.40680  eV     1   --> A              
     e( 58 - 58) =     65.67668  eV     1   --> A              
     e( 59 - 59) =     67.54529  eV     1   --> A              
     e( 60 - 60) =     67.85368  eV     1   --> A              
     e( 61 - 61) =     67.90494  eV     1   --> A              
     e( 62 - 62) =     67.99184  eV     1   --> A              
     e( 63 - 63) =     70.93780  eV     1   --> A              
     e( 64 - 64) =     70.96569  eV     1   --> A              
     e( 65 - 65) =     71.03347  eV     1   --> A              
     e( 66 - 66) =     71.20713  eV     1   --> A              
     e( 67 - 67) =     71.48576  eV     1   --> A              
     e( 68 - 68) =     72.43040  eV     1   --> A              
     e( 69 - 69) =     72.45401  eV     1   --> A              
     e( 70 - 70) =     72.71333  eV     1   --> A              
     e( 71 - 71) =     73.16424  eV     1   --> A              
     e( 72 - 72) =     73.61764  eV     1   --> A              
     e( 73 - 73) =     74.18054  eV     1   --> A              
     e( 74 - 74) =     77.54673  eV     1   --> A              
     e( 75 - 75) =     79.94841  eV     1   --> A              
     e( 76 - 76) =     80.05704  eV     1   --> A              
     e( 77 - 77) =     80.80159  eV     1   --> A              
     e( 78 - 78) =     82.99948  eV     1   --> A              
     e( 79 - 79) =     83.13779  eV     1   --> A              
     e( 80 - 80) =     87.87329  eV     1   --> A              
     e( 81 - 81) =     87.89515  eV     1   --> A              
     e( 82 - 82) =     87.94202  eV     1   --> A              
     e( 83 - 83) =     88.51177  eV     1   --> A              
     e( 84 - 84) =     89.72954  eV     1   --> A              
     e( 85 - 85) =     90.47077  eV     1   --> A              
     e( 86 - 86) =     90.62554  eV     1   --> A              
     e( 87 - 87) =     90.79420  eV     1   --> A              
     e( 88 - 88) =     90.85334  eV     1   --> A              
     e( 89 - 89) =     92.23342  eV     1   --> A              
     e( 90 - 90) =     92.67574  eV     1   --> A              
     e( 91 - 91) =     92.86159  eV     1   --> A              
     e( 92 - 92) =     93.00429  eV     1   --> A              
     e( 93 - 93) =     93.10201  eV     1   --> A              
     e( 94 - 94) =     93.75170  eV     1   --> A              
     e( 95 - 95) =     93.83015  eV     1   --> A              
     e( 96 - 96) =     93.85371  eV     1   --> A              
     e( 97 - 97) =     94.30378  eV     1   --> A              
     e( 98 - 98) =     94.99485  eV     1   --> A              
     e( 99 - 99) =     95.13550  eV     1   --> A              
     e(100 -100) =     95.43949  eV     1   --> A              

 **************************************************************************

 **************************************************************************

                    xk=(   0.00391,  -0.01296,  -0.02116  )

     Band symmetry, C_1 (1)     point group:

     e(  1 -  1) =    -90.44783  eV     1   --> A              
     e(  2 -  2) =    -88.37455  eV     1   --> A              
     e(  3 -  3) =    -50.79638  eV     1   --> A              
     e(  4 -  4) =    -50.78107  eV     1   --> A              
     e(  5 -  5) =    -50.78058  eV     1   --> A              
     e(  6 -  6) =    -48.77269  eV     1   --> A              
     e(  7 -  7) =    -48.75750  eV     1   --> A              
     e(  8 -  8) =    -48.75733  eV     1   --> A              
     e(  9 -  9) =     -5.61455  eV     1   --> A              
     e( 10 - 10) =     -4.15593  eV     1   --> A              
     e( 11 - 11) =      3.65465  eV     1   --> A              
     e( 12 - 12) =      6.73370  eV     1   --> A              
     e( 13 - 13) =      6.73557  eV     1   --> A              
     e( 14 - 14) =      9.46752  eV     1   --> A              
     e( 15 - 15) =      9.46960  eV     1   --> A              
     e( 16 - 16) =      9.58753  eV     1   --> A              
     e( 17 - 17) =     10.18053  eV     1   --> A              
     e( 18 - 18) =     10.21498  eV     1   --> A              
     e( 19 - 19) =     10.22110  eV     1   --> A              
     e( 20 - 20) =     10.36976  eV     1   --> A              
     e( 21 - 21) =     10.39681  eV     1   --> A              
     e( 22 - 22) =     11.40630  eV     1   --> A              
     e( 23 - 23) =     11.65156  eV     1   --> A              
     e( 24 - 24) =     11.65514  eV     1   --> A              
     e( 25 - 25) =     16.16113  eV     1   --> A              
     e( 26 - 26) =     16.27269  eV     1   --> A              
     e( 27 - 27) =     16.27575  eV     1   --> A              
     e( 28 - 28) =     20.10271  eV     1   --> A              
     e( 29 - 29) =     24.65429  eV     1   --> A              
     e( 30 - 30) =     28.54200  eV     1   --> A              
     e( 31 - 31) =     28.56198  eV     1   --> A              
     e( 32 - 32) =     32.14608  eV     1   --> A              
     e( 33 - 33) =     33.38494  eV     1   --> A              
     e( 34 - 34) =     33.40122  eV     1   --> A              
     e( 35 - 35) =     33.45275  eV     1   --> A              
     e( 36 - 36) =     35.80164  eV     1   --> A              
     e( 37 - 37) =     36.85900  eV     1   --> A              
     e( 38 - 38) =     36.90203  eV     1   --> A              
     e( 39 - 39) =     36.92418  eV     1   --> A              
     e( 40 - 40) =     40.15525  eV     1   --> A              
     e( 41 - 41) =     40.21556  eV     1   --> A              
     e( 42 - 42) =     40.60373  eV     1   --> A              
     e( 43 - 43) =     40.62269  eV     1   --> A              
     e( 44 - 44) =     41.31257  eV     1   --> A              
     e( 45 - 45) =     43.43825  eV     1   --> A              
     e( 46 - 46) =     43.44615  eV     1   --> A              
     e( 47 - 47) =     50.67706  eV     1   --> A              
     e( 48 - 48) =     50.75597  eV     1   --> A              
     e( 49 - 49) =     50.76070  eV     1   --> A              
     e( 50 - 50) =     51.20696  eV     1   --> A              
     e( 51 - 51) =     54.81761  eV     1   --> A              
     e( 52 - 52) =     54.83204  eV     1   --> A              
     e( 53 - 53) =     56.68622  eV     1   --> A              
     e( 54 - 54) =     56.93631  eV     1   --> A              
     e( 55 - 55) =     58.97519  eV     1   --> A              
     e( 56 - 56) =     58.98344  eV     1   --> A              
     e( 57 - 57) =     65.60264  eV     1   --> A              
     e( 58 - 58) =     65.67628  eV     1   --> A              
     e( 59 - 59) =     67.73266  eV     1   --> A              
     e( 60 - 60) =     67.93425  eV     1   --> A              
     e( 61 - 61) =     68.02680  eV     1   --> A              
     e( 62 - 62) =     68.06455  eV     1   --> A              
     e( 63 - 63) =     70.92222  eV     1   --> A              
     e( 64 - 64) =     70.93804  eV     1   --> A              
     e( 65 - 65) =     70.96360  eV     1   --> A              
     e( 66 - 66) =     71.02279  eV     1   --> A              
     e( 67 - 67) =     71.08255  eV     1   --> A              
     e( 68 - 68) =     72.44803  eV     1   --> A              
     e( 69 - 69) =     72.55429  eV     1   --> A              
     e( 70 - 70) =     72.67616  eV     1   --> A              
     e( 71 - 71) =     73.44900  eV     1   --> A              
     e( 72 - 72) =     73.57384  eV     1   --> A              
     e( 73 - 73) =     74.17511  eV     1   --> A              
     e( 74 - 74) =     77.20073  eV     1   --> A              
     e( 75 - 75) =     80.19178  eV     1   --> A              
     e( 76 - 76) =     80.23362  eV     1   --> A              
     e( 77 - 77) =     80.85853  eV     1   --> A              
     e( 78 - 78) =     82.75216  eV     1   --> A              
     e( 79 - 79) =     82.79585  eV     1   --> A              
     e( 80 - 80) =     87.95693  eV     1   --> A              
     e( 81 - 81) =     87.96249  eV     1   --> A              
     e( 82 - 82) =     87.97397  eV     1   --> A              
     e( 83 - 83) =     89.04720  eV     1   --> A              
     e( 84 - 84) =     89.88440  eV     1   --> A              
     e( 85 - 85) =     90.19276  eV     1   --> A              
     e( 86 - 86) =     90.89011  eV     1   --> A              
     e( 87 - 87) =     90.93961  eV     1   --> A              
     e( 88 - 88) =     90.95904  eV     1   --> A              
     e( 89 - 89) =     92.58454  eV     1   --> A              
     e( 90 - 90) =     93.16106  eV     1   --> A              
     e( 91 - 91) =     93.18728  eV     1   --> A              
     e( 92 - 92) =     93.21895  eV     1   --> A              
     e( 93 - 93) =     93.23425  eV     1   --> A              
     e( 94 - 94) =     93.64295  eV     1   --> A              
     e( 95 - 95) =     93.69959  eV     1   --> A              
     e( 96 - 96) =     93.73279  eV     1   --> A              
     e( 97 - 97) =     93.84835  eV     1   --> A              
     e( 98 - 98) =     94.97513  eV     1   --> A              
     e( 99 - 99) =     95.03885  eV     1   --> A              
     e(100 -100) =     95.09889  eV     1   --> A              

 **************************************************************************

 **************************************************************************

                    xk=(   0.00000,   0.00000,   0.00000  )

     point group C_i (-1)   
     there are  2 classes
     the character table:

       E     i    
A_g    1.00  1.00
A_u    1.00 -1.00

     the symmetry operations in each class and the name of the first element:

     E        1
                                                                 
     i        2
                                                                 

     Band symmetry, C_i (-1)    point group:

     e(  1 -  1) =    -90.44783  eV     1   --> A_g            
     e(  2 -  2) =    -88.37454  eV     1   --> A_g            
     e(  3 -  3) =    -50.79637  eV     1   --> A_u            
     e(  4 -  4) =    -50.78103  eV     1   --> A_u            
     e(  5 -  5) =    -50.78055  eV     1   --> A_u            
     e(  6 -  6) =    -48.77268  eV     1   --> A_u            
     e(  7 -  7) =    -48.75744  eV     1   --> A_u            
     e(  8 -  8) =    -48.75730  eV     1   --> A_u            
     e(  9 -  9) =     -5.61568  eV     1   --> A_g            
     e( 10 - 10) =     -4.15588  eV     1   --> A_u            
     e( 11 - 11) =      3.65083  eV     1   --> A_g            
     e( 12 - 12) =      6.73488  eV     1   --> A_g            
     e( 13 - 13) =      6.73508  eV     1   --> A_g            
     e( 14 - 14) =      9.47493  eV     1   --> A_g            
     e( 15 - 15) =      9.47562  eV     1   --> A_g            
     e( 16 - 16) =      9.58983  eV     1   --> A_g            
     e( 17 - 17) =     10.21598  eV     1   --> A_u            
     e( 18 - 19) =     10.21758  eV     2   -->   2 A_u            
     e( 20 - 20) =     10.36601  eV     1   --> A_g            
     e( 21 - 21) =     10.36793  eV     1   --> A_g            
     e( 22 - 22) =     11.40678  eV     1   --> A_g            
     e( 23 - 23) =     11.65089  eV     1   --> A_g            
     e( 24 - 24) =     11.65237  eV     1   --> A_g            
     e( 25 - 25) =     16.15058  eV     1   --> A_g            
     e( 26 - 26) =     16.27577  eV     1   --> A_g            
     e( 27 - 27) =     16.27662  eV     1   --> A_g            
     e( 28 - 28) =     20.09220  eV     1   --> A_u            
     e( 29 - 29) =     24.65681  eV     1   --> A_g            
     e( 30 - 30) =     28.55764  eV     1   --> A_u            
     e( 31 - 31) =     28.55776  eV     1   --> A_u            
     e( 32 - 32) =     32.20860  eV     1   --> A_u            
     e( 33 - 33) =     33.39996  eV     1   --> A_g            
     e( 34 - 35) =     33.40011  eV     2   -->   2 A_g            
     e( 36 - 36) =     35.77860  eV     1   --> A_g            
     e( 37 - 37) =     36.89581  eV     1   --> A_u            
     e( 38 - 38) =     36.90278  eV     1   --> A_u            
     e( 39 - 39) =     36.90290  eV     1   --> A_u            
     e( 40 - 40) =     40.21986  eV     1   --> A_g            
     e( 41 - 41) =     40.22003  eV     1   --> A_g            
     e( 42 - 42) =     40.59189  eV     1   --> A_g            
     e( 43 - 43) =     40.59218  eV     1   --> A_g            
     e( 44 - 44) =     41.24321  eV     1   --> A_u            
     e( 45 - 46) =     43.42921  eV     2   -->   2 A_u            
     e( 47 - 48) =     50.75763  eV     2   -->   2 A_u            
     e( 49 - 49) =     50.76091  eV     1   --> A_u            
     e( 50 - 50) =     51.12106  eV     1   --> A_g            
     e( 51 - 51) =     54.83139  eV     1   --> A_g            
     e( 52 - 52) =     54.83156  eV     1   --> A_g            
     e( 53 - 53) =     56.71778  eV     1   --> A_u            
     e( 54 - 54) =     56.89271  eV     1   --> A_g            
     e( 55 - 56) =     58.97841  eV     2   -->   2 A_u            
     e( 57 - 58) =     65.67617  eV     2   -->   2 A_g            
     e( 59 - 59) =     67.66690  eV     1   --> A_u            
     e( 60 - 60) =     68.08859  eV     1   --> A_u            
     e( 61 - 62) =     68.09007  eV     2   -->   2 A_u            
     e( 63 - 64) =     70.88868  eV     2   -->   2 A_g            
     e( 65 - 65) =     70.96067  eV     1   --> A_g            
     e( 66 - 67) =     70.96292  eV     2   -->   2 A_g            
     e( 68 - 68) =     72.44723  eV     1   --> A_g            
     e( 69 - 69) =     72.59466  eV     1   --> A_u            
     e( 70 - 70) =     72.66232  eV     1   --> A_u            
     e( 71 - 72) =     73.55913  eV     2   -->   2 A_u            
     e( 73 - 73) =     74.17327  eV     1   --> A_g            
     e( 74 - 74) =     77.07181  eV     1   --> A_g            
     e( 75 - 76) =     80.28387  eV     2   -->   2 A_g            
     e( 77 - 77) =     80.90944  eV     1   --> A_g            
     e( 78 - 79) =     82.65840  eV     2   -->   2 A_u            
     e( 80 - 80) =     87.98386  eV     1   --> A_u            
     e( 81 - 82) =     87.98461  eV     2   -->   2 A_u            
     e( 83 - 83) =     89.37020  eV     1   --> A_u            
     e( 84 - 85) =     89.93311  eV     2   -->   2 A_g            
     e( 86 - 87) =     90.98089  eV     2   -->   2 A_u            
     e( 88 - 88) =     91.03236  eV     1   --> A_u            
     e( 89 - 89) =     92.80513  eV     1   --> A_g            
     e( 90 - 90) =     93.25872  eV     1   --> A_u            
     e( 91 - 92) =     93.36945  eV     2   -->   2 A_u            
     e( 93 - 93) =     93.37821  eV     1   --> A_u            
     e( 94 - 95) =     93.59991  eV     2   -->   2 A_u            
     e( 96 - 97) =     93.63330  eV     2   -->   2 A_g            
     e( 98 - 99) =     94.96047  eV     2   -->   2 A_g            
     e(100 -100) =     94.96109  eV     1   --> A_g            

 **************************************************************************
 
     BANDS        :    41.63s CPU        51.64s WALL

 
   This run was terminated on:  16:31: 4   3Jan2020            

=------------------------------------------------------------------------------=
   JOB DONE.
=------------------------------------------------------------------------------=
IPL WARN> ipl_option_omp: wrong omp option 
