
     Program BANDS v.6.1 (svn rev. 13369) starts on  3Jan2020 at 18:12:13 

     This program is part of the open-source Quantum ESPRESSO suite
     for quantum simulation of materials; please cite
         "P. Giannozzi et al., J. Phys.:Condens. Matter 21 395502 (2009);
          URL http://www.quantum-espresso.org", 
     in publications or presentations arising from this work. More details at
     http://www.quantum-espresso.org/quote

     Parallel version (MPI), running on    40 processors
     R & G space division:  proc/nbgrp/npool/nimage =      40

     Reading data from directory:
     ./outdir/NiO.save

   Info: using nr1, nr2, nr3 values from input

   Info: using nr1, nr2, nr3 values from input

     IMPORTANT: XC functional enforced from input :
     Exchange-correlation      =  SLA  PW   PBX  PBC ( 1  4  3  4 0 0)
     Any further DFT definition will be discarded
     Please, verify this is what you really want

               file Ni.pbe-spn-kjpaw_psl.1.0.0.UPF: wavefunction(s)  3P 3D renormalized
               file Ni.pbe-spn-kjpaw_psl.1.0.0.UPF: wavefunction(s)  3P 3D renormalized
               file O.pbe-n-kjpaw_psl.1.0.0.UPF: wavefunction(s)  2S 2P renormalized
 
     Parallelization info
     --------------------
     sticks:   dense  smooth     PW     G-vecs:    dense   smooth      PW
     Min          82      82     22                 2333     2333     341
     Max          83      83     23                 2335     2335     344
     Sum        3287    3287    911                93351    93351   13705
 
     Generating pointlists ...
     new r_m :   0.1684 (alat units)  1.6253 (a.u.) for type    1
     new r_m :   0.1684 (alat units)  1.6253 (a.u.) for type    2
     new r_m :   0.1684 (alat units)  1.6253 (a.u.) for type    3
     high-symmetry point:  0.0000 0.0000 0.0000   x coordinate   0.0000
     high-symmetry point:  0.0000-0.9045-0.5539   x coordinate   1.0607
     high-symmetry point: -0.1875-0.6219-1.0155   x coordinate   1.6335
     high-symmetry point: -0.3438-0.1036-1.0155   x coordinate   2.1747
     high-symmetry point:  0.0000 0.0000 0.0000   x coordinate   3.2519
     high-symmetry point: -0.5000-0.1508-0.0923   x coordinate   3.7822
     high-symmetry point: -0.1875-0.9045-0.5539   x coordinate   4.7197
     high-symmetry point: -0.1875-0.6219-1.0155   x coordinate   5.2609
     high-symmetry point: -0.5000-0.1508-0.0923   x coordinate   6.3435
     high-symmetry point: -0.3438-0.1036-1.0155   x coordinate   7.2810
     high-symmetry point: -0.1875-0.9045-0.5539   x coordinate   8.2185
     high-symmetry point:  0.0000-0.9045-0.5539   x coordinate   8.4060
     high-symmetry point:  0.0000 0.0000 0.0000   x coordinate   9.4666
     high-symmetry point:  0.0000 0.0000-1.0155   x coordinate  10.4821
     high-symmetry point:  0.0000-0.6219-1.0155   x coordinate  11.1040
     high-symmetry point:  0.1875-0.6219-1.0155   x coordinate  11.2915
     high-symmetry point:  0.0000 0.0000 0.0000   x coordinate  12.4970

     Plottable bands (eV) written to file NiO.bands.dat.gnu
     Bands written to file NiO.bands.dat

 **************************************************************************

                    xk=(   0.00000,   0.00000,   0.00000  )

     point group C_i (-1)   
     there are  2 classes
     the character table:

       E     i    
A_g    1.00  1.00
A_u    1.00 -1.00

     the symmetry operations in each class and the name of the first element:

     E        1
                                                                 
     i        2
                                                                 

     Band symmetry, C_i (-1)    point group:

     e(  1 -  1) =    -90.57840  eV     1   --> A_g            
     e(  2 -  2) =    -88.45955  eV     1   --> A_g            
     e(  3 -  3) =    -50.91494  eV     1   --> A_u            
     e(  4 -  4) =    -50.90003  eV     1   --> A_u            
     e(  5 -  5) =    -50.89936  eV     1   --> A_u            
     e(  6 -  6) =    -48.84705  eV     1   --> A_u            
     e(  7 -  7) =    -48.83182  eV     1   --> A_u            
     e(  8 -  8) =    -48.83167  eV     1   --> A_u            
     e(  9 -  9) =     -5.55678  eV     1   --> A_g            
     e( 10 - 10) =     -4.08651  eV     1   --> A_u            
     e( 11 - 11) =      3.04413  eV     1   --> A_g            
     e( 12 - 12) =      6.20236  eV     1   --> A_g            
     e( 13 - 13) =      6.20268  eV     1   --> A_g            
     e( 14 - 14) =      8.88803  eV     1   --> A_g            
     e( 15 - 15) =      8.88903  eV     1   --> A_g            
     e( 16 - 16) =      9.01025  eV     1   --> A_g            
     e( 17 - 17) =      9.83866  eV     1   --> A_g            
     e( 18 - 18) =      9.84125  eV     1   --> A_g            
     e( 19 - 19) =      9.90947  eV     1   --> A_u            
     e( 20 - 21) =      9.91251  eV     2   -->   2 A_u            
     e( 22 - 22) =     10.91318  eV     1   --> A_g            
     e( 23 - 23) =     11.33278  eV     1   --> A_g            
     e( 24 - 24) =     11.33502  eV     1   --> A_g            
     e( 25 - 25) =     16.16658  eV     1   --> A_g            
     e( 26 - 26) =     16.45064  eV     1   --> A_g            
     e( 27 - 27) =     16.45160  eV     1   --> A_g            
     e( 28 - 28) =     20.09808  eV     1   --> A_u            
     e( 29 - 29) =     24.66658  eV     1   --> A_g            
     e( 30 - 30) =     28.54777  eV     1   --> A_u            
     e( 31 - 31) =     28.54793  eV     1   --> A_u            
     e( 32 - 32) =     32.20903  eV     1   --> A_u            
     e( 33 - 35) =     33.38575  eV     3   -->   3 A_g            
     e( 36 - 36) =     35.75902  eV     1   --> A_g            
     e( 37 - 37) =     36.87484  eV     1   --> A_u            
     e( 38 - 38) =     36.88216  eV     1   --> A_u            
     e( 39 - 39) =     36.88231  eV     1   --> A_u            
     e( 40 - 40) =     40.21268  eV     1   --> A_g            
     e( 41 - 41) =     40.21298  eV     1   --> A_g            
     e( 42 - 42) =     40.58723  eV     1   --> A_g            
     e( 43 - 43) =     40.58762  eV     1   --> A_g            
     e( 44 - 44) =     41.25278  eV     1   --> A_u            
     e( 45 - 46) =     43.43575  eV     2   -->   2 A_u            
     e( 47 - 48) =     50.78482  eV     2   -->   2 A_u            
     e( 49 - 49) =     50.78777  eV     1   --> A_u            
     e( 50 - 50) =     51.09967  eV     1   --> A_g            
     e( 51 - 51) =     54.82733  eV     1   --> A_g            
     e( 52 - 52) =     54.82757  eV     1   --> A_g            
     e( 53 - 53) =     56.72539  eV     1   --> A_u            
     e( 54 - 54) =     56.89414  eV     1   --> A_g            
     e( 55 - 56) =     58.97296  eV     2   -->   2 A_u            
     e( 57 - 58) =     65.68226  eV     2   -->   2 A_g            
     e( 59 - 59) =     67.64739  eV     1   --> A_u            
     e( 60 - 60) =     68.07953  eV     1   --> A_u            
     e( 61 - 62) =     68.08131  eV     2   -->   2 A_u            
     e( 63 - 64) =     70.89661  eV     2   -->   2 A_g            
     e( 65 - 65) =     70.96679  eV     1   --> A_g            
     e( 66 - 67) =     70.96950  eV     2   -->   2 A_g            
     e( 68 - 68) =     72.42197  eV     1   --> A_g            
     e( 69 - 69) =     72.57470  eV     1   --> A_u            
     e( 70 - 70) =     72.68002  eV     1   --> A_u            
     e( 71 - 72) =     73.57677  eV     2   -->   2 A_u            
     e( 73 - 73) =     74.19431  eV     1   --> A_g            
     e( 74 - 74) =     77.08269  eV     1   --> A_g            
     e( 75 - 76) =     80.26912  eV     2   -->   2 A_g            
     e( 77 - 77) =     80.93242  eV     1   --> A_g            
     e( 78 - 79) =     82.65655  eV     2   -->   2 A_u            
     e( 80 - 80) =     87.98216  eV     1   --> A_u            
     e( 81 - 82) =     87.98285  eV     2   -->   2 A_u            
     e( 83 - 83) =     89.35299  eV     1   --> A_u            
     e( 84 - 85) =     89.93015  eV     2   -->   2 A_g            
     e( 86 - 87) =     90.97763  eV     2   -->   2 A_u            
     e( 88 - 88) =     91.03248  eV     1   --> A_u            
     e( 89 - 89) =     92.81568  eV     1   --> A_g            
     e( 90 - 90) =     93.22975  eV     1   --> A_u            
     e( 91 - 92) =     93.36900  eV     2   -->   2 A_u            
     e( 93 - 93) =     93.37795  eV     1   --> A_u            
     e( 94 - 95) =     93.60700  eV     2   -->   2 A_u            
     e( 96 - 97) =     93.63487  eV     2   -->   2 A_g            
     e( 98 - 99) =     94.96948  eV     2   -->   2 A_g            
     e(100 -100) =     94.97003  eV     1   --> A_g            

 **************************************************************************

 **************************************************************************

                    xk=(   0.00000,  -0.02154,  -0.01319  )

     point group C_1 (1)    
     there are  1 classes
     the character table:

       E    
A      1.00

     the symmetry operations in each class and the name of the first element:

     E        1
                                                                 

     Band symmetry, C_1 (1)     point group:

     e(  1 -  1) =    -90.57841  eV     1   --> A              
     e(  2 -  2) =    -88.45957  eV     1   --> A              
     e(  3 -  3) =    -50.91496  eV     1   --> A              
     e(  4 -  4) =    -50.90005  eV     1   --> A              
     e(  5 -  5) =    -50.89941  eV     1   --> A              
     e(  6 -  6) =    -48.84707  eV     1   --> A              
     e(  7 -  7) =    -48.83185  eV     1   --> A              
     e(  8 -  8) =    -48.83171  eV     1   --> A              
     e(  9 -  9) =     -5.55578  eV     1   --> A              
     e( 10 - 10) =     -4.08698  eV     1   --> A              
     e( 11 - 11) =      3.04861  eV     1   --> A              
     e( 12 - 12) =      6.20132  eV     1   --> A              
     e( 13 - 13) =      6.20331  eV     1   --> A              
     e( 14 - 14) =      8.88249  eV     1   --> A              
     e( 15 - 15) =      8.88541  eV     1   --> A              
     e( 16 - 16) =      9.00802  eV     1   --> A              
     e( 17 - 17) =      9.79420  eV     1   --> A              
     e( 18 - 18) =      9.82957  eV     1   --> A              
     e( 19 - 19) =      9.91044  eV     1   --> A              
     e( 20 - 20) =      9.92276  eV     1   --> A              
     e( 21 - 21) =      9.95125  eV     1   --> A              
     e( 22 - 22) =     10.91262  eV     1   --> A              
     e( 23 - 23) =     11.33334  eV     1   --> A              
     e( 24 - 24) =     11.33712  eV     1   --> A              
     e( 25 - 25) =     16.17714  eV     1   --> A              
     e( 26 - 26) =     16.44900  eV     1   --> A              
     e( 27 - 27) =     16.44992  eV     1   --> A              
     e( 28 - 28) =     20.10765  eV     1   --> A              
     e( 29 - 29) =     24.66443  eV     1   --> A              
     e( 30 - 30) =     28.53394  eV     1   --> A              
     e( 31 - 31) =     28.55238  eV     1   --> A              
     e( 32 - 32) =     32.14466  eV     1   --> A              
     e( 33 - 34) =     33.38182  eV     2   -->   2 A              
     e( 35 - 35) =     33.43399  eV     1   --> A              
     e( 36 - 36) =     35.77976  eV     1   --> A              
     e( 37 - 37) =     36.85719  eV     1   --> A              
     e( 38 - 38) =     36.86374  eV     1   --> A              
     e( 39 - 39) =     36.90197  eV     1   --> A              
     e( 40 - 40) =     40.14368  eV     1   --> A              
     e( 41 - 41) =     40.21765  eV     1   --> A              
     e( 42 - 42) =     40.60379  eV     1   --> A              
     e( 43 - 43) =     40.61305  eV     1   --> A              
     e( 44 - 44) =     41.31637  eV     1   --> A              
     e( 45 - 45) =     43.44190  eV     1   --> A              
     e( 46 - 46) =     43.45824  eV     1   --> A              
     e( 47 - 47) =     50.69577  eV     1   --> A              
     e( 48 - 48) =     50.78441  eV     1   --> A              
     e( 49 - 49) =     50.78701  eV     1   --> A              
     e( 50 - 50) =     51.19332  eV     1   --> A              
     e( 51 - 51) =     54.81937  eV     1   --> A              
     e( 52 - 52) =     54.82130  eV     1   --> A              
     e( 53 - 53) =     56.58633  eV     1   --> A              
     e( 54 - 54) =     57.04453  eV     1   --> A              
     e( 55 - 55) =     58.96248  eV     1   --> A              
     e( 56 - 56) =     58.98048  eV     1   --> A              
     e( 57 - 57) =     65.61033  eV     1   --> A              
     e( 58 - 58) =     65.69480  eV     1   --> A              
     e( 59 - 59) =     67.70138  eV     1   --> A              
     e( 60 - 60) =     67.95613  eV     1   --> A              
     e( 61 - 61) =     67.95771  eV     1   --> A              
     e( 62 - 62) =     68.08456  eV     1   --> A              
     e( 63 - 63) =     70.92958  eV     1   --> A              
     e( 64 - 64) =     70.93095  eV     1   --> A              
     e( 65 - 65) =     70.96953  eV     1   --> A              
     e( 66 - 66) =     71.06708  eV     1   --> A              
     e( 67 - 67) =     71.06812  eV     1   --> A              
     e( 68 - 68) =     72.42847  eV     1   --> A              
     e( 69 - 69) =     72.53576  eV     1   --> A              
     e( 70 - 70) =     72.69459  eV     1   --> A              
     e( 71 - 71) =     73.47610  eV     1   --> A              
     e( 72 - 72) =     73.58875  eV     1   --> A              
     e( 73 - 73) =     74.19618  eV     1   --> A              
     e( 74 - 74) =     77.20365  eV     1   --> A              
     e( 75 - 75) =     80.18384  eV     1   --> A              
     e( 76 - 76) =     80.22783  eV     1   --> A              
     e( 77 - 77) =     80.88273  eV     1   --> A              
     e( 78 - 78) =     82.74623  eV     1   --> A              
     e( 79 - 79) =     82.78109  eV     1   --> A              
     e( 80 - 80) =     87.96113  eV     1   --> A              
     e( 81 - 81) =     87.96286  eV     1   --> A              
     e( 82 - 82) =     87.96353  eV     1   --> A              
     e( 83 - 83) =     89.05224  eV     1   --> A              
     e( 84 - 84) =     89.89284  eV     1   --> A              
     e( 85 - 85) =     90.16414  eV     1   --> A              
     e( 86 - 86) =     90.89228  eV     1   --> A              
     e( 87 - 87) =     90.92876  eV     1   --> A              
     e( 88 - 88) =     90.96042  eV     1   --> A              
     e( 89 - 89) =     92.60996  eV     1   --> A              
     e( 90 - 90) =     93.18025  eV     1   --> A              
     e( 91 - 91) =     93.18107  eV     1   --> A              
     e( 92 - 92) =     93.18989  eV     1   --> A              
     e( 93 - 93) =     93.21546  eV     1   --> A              
     e( 94 - 94) =     93.63652  eV     1   --> A              
     e( 95 - 95) =     93.71036  eV     1   --> A              
     e( 96 - 96) =     93.71856  eV     1   --> A              
     e( 97 - 97) =     93.84159  eV     1   --> A              
     e( 98 - 98) =     95.00335  eV     1   --> A              
     e( 99 - 99) =     95.07937  eV     1   --> A              
     e(100 -100) =     95.07973  eV     1   --> A              

 **************************************************************************

 **************************************************************************

                    xk=(   0.00000,  -0.04307,  -0.02638  )

     Band symmetry, C_1 (1)     point group:

     e(  1 -  1) =    -90.57843  eV     1   --> A              
     e(  2 -  2) =    -88.45963  eV     1   --> A              
     e(  3 -  3) =    -50.91500  eV     1   --> A              
     e(  4 -  4) =    -50.90013  eV     1   --> A              
     e(  5 -  5) =    -50.89953  eV     1   --> A              
     e(  6 -  6) =    -48.84711  eV     1   --> A              
     e(  7 -  7) =    -48.83198  eV     1   --> A              
     e(  8 -  8) =    -48.83181  eV     1   --> A              
     e(  9 -  9) =     -5.55278  eV     1   --> A              
     e( 10 - 10) =     -4.08840  eV     1   --> A              
     e( 11 - 11) =      3.06200  eV     1   --> A              
     e( 12 - 12) =      6.19801  eV     1   --> A              
     e( 13 - 13) =      6.20540  eV     1   --> A              
     e( 14 - 14) =      8.86282  eV     1   --> A              
     e( 15 - 15) =      8.87666  eV     1   --> A              
     e( 16 - 16) =      9.00210  eV     1   --> A              
     e( 17 - 17) =      9.72052  eV     1   --> A              
     e( 18 - 18) =      9.80922  eV     1   --> A              
     e( 19 - 19) =      9.90507  eV     1   --> A              
     e( 20 - 20) =      9.94473  eV     1   --> A              
     e( 21 - 21) =     10.01060  eV     1   --> A              
     e( 22 - 22) =     10.91092  eV     1   --> A              
     e( 23 - 23) =     11.33446  eV     1   --> A              
     e( 24 - 24) =     11.34394  eV     1   --> A              
     e( 25 - 25) =     16.20858  eV     1   --> A              
     e( 26 - 26) =     16.44303  eV     1   --> A              
     e( 27 - 27) =     16.44612  eV     1   --> A              
     e( 28 - 28) =     20.13613  eV     1   --> A              
     e( 29 - 29) =     24.65799  eV     1   --> A              
     e( 30 - 30) =     28.49272  eV     1   --> A              
     e( 31 - 31) =     28.56603  eV     1   --> A              
     e( 32 - 32) =     31.97737  eV     1   --> A              
     e( 33 - 34) =     33.36976  eV     2   -->   2 A              
     e( 35 - 35) =     33.55256  eV     1   --> A              
     e( 36 - 36) =     35.84097  eV     1   --> A              
     e( 37 - 37) =     36.80472  eV     1   --> A              
     e( 38 - 38) =     36.81087  eV     1   --> A              
     e( 39 - 39) =     36.96307  eV     1   --> A              
     e( 40 - 40) =     39.95893  eV     1   --> A              
     e( 41 - 41) =     40.22893  eV     1   --> A              
     e( 42 - 42) =     40.67491  eV     1   --> A              
     e( 43 - 43) =     40.69093  eV     1   --> A              
     e( 44 - 44) =     41.46090  eV     1   --> A              
     e( 45 - 45) =     43.46018  eV     1   --> A              
     e( 46 - 46) =     43.52518  eV     1   --> A              
     e( 47 - 47) =     50.53298  eV     1   --> A              
     e( 48 - 48) =     50.78305  eV     1   --> A              
     e( 49 - 49) =     50.78564  eV     1   --> A              
     e( 50 - 50) =     51.36898  eV     1   --> A              
     e( 51 - 51) =     54.79547  eV     1   --> A              
     e( 52 - 52) =     54.80307  eV     1   --> A              
     e( 53 - 53) =     56.39993  eV     1   --> A              
     e( 54 - 54) =     57.26367  eV     1   --> A              
     e( 55 - 55) =     58.93132  eV     1   --> A              
     e( 56 - 56) =     59.00365  eV     1   --> A              
     e( 57 - 57) =     65.41623  eV     1   --> A              
     e( 58 - 58) =     65.73120  eV     1   --> A              
     e( 59 - 59) =     67.63684  eV     1   --> A              
     e( 60 - 60) =     67.63807  eV     1   --> A              
     e( 61 - 61) =     67.84198  eV     1   --> A              
     e( 62 - 62) =     68.09489  eV     1   --> A              
     e( 63 - 63) =     70.94263  eV     1   --> A              
     e( 64 - 64) =     70.94433  eV     1   --> A              
     e( 65 - 65) =     70.97034  eV     1   --> A              
     e( 66 - 66) =     71.40122  eV     1   --> A              
     e( 67 - 67) =     71.40183  eV     1   --> A              
     e( 68 - 68) =     72.41576  eV     1   --> A              
     e( 69 - 69) =     72.45026  eV     1   --> A              
     e( 70 - 70) =     72.73490  eV     1   --> A              
     e( 71 - 71) =     73.21641  eV     1   --> A              
     e( 72 - 72) =     73.62510  eV     1   --> A              
     e( 73 - 73) =     74.20171  eV     1   --> A              
     e( 74 - 74) =     77.52867  eV     1   --> A              
     e( 75 - 75) =     79.92963  eV     1   --> A              
     e( 76 - 76) =     80.12335  eV     1   --> A              
     e( 77 - 77) =     80.80025  eV     1   --> A              
     e( 78 - 78) =     82.99541  eV     1   --> A              
     e( 79 - 79) =     83.08634  eV     1   --> A              
     e( 80 - 80) =     87.89440  eV     1   --> A              
     e( 81 - 81) =     87.90266  eV     1   --> A              
     e( 82 - 82) =     87.90375  eV     1   --> A              
     e( 83 - 83) =     88.53350  eV     1   --> A              
     e( 84 - 84) =     89.78580  eV     1   --> A              
     e( 85 - 85) =     90.41296  eV     1   --> A              
     e( 86 - 86) =     90.65407  eV     1   --> A              
     e( 87 - 87) =     90.78093  eV     1   --> A              
     e( 88 - 88) =     90.82548  eV     1   --> A              
     e( 89 - 89) =     92.28737  eV     1   --> A              
     e( 90 - 90) =     92.81813  eV     1   --> A              
     e( 91 - 91) =     92.81976  eV     1   --> A              
     e( 92 - 92) =     92.83678  eV     1   --> A              
     e( 93 - 93) =     93.07433  eV     1   --> A              
     e( 94 - 94) =     93.72768  eV     1   --> A              
     e( 95 - 95) =     93.78798  eV     1   --> A              
     e( 96 - 96) =     93.82200  eV     1   --> A              
     e( 97 - 97) =     94.28313  eV     1   --> A              
     e( 98 - 98) =     95.09724  eV     1   --> A              
     e( 99 - 99) =     95.33596  eV     1   --> A              
     e(100 -100) =     95.33633  eV     1   --> A              

 **************************************************************************

 **************************************************************************

                    xk=(   0.00000,  -0.06461,  -0.03957  )

     Band symmetry, C_1 (1)     point group:

     e(  1 -  1) =    -90.57846  eV     1   --> A              
     e(  2 -  2) =    -88.45974  eV     1   --> A              
     e(  3 -  3) =    -50.91506  eV     1   --> A              
     e(  4 -  4) =    -50.90027  eV     1   --> A              
     e(  5 -  5) =    -50.89970  eV     1   --> A              
     e(  6 -  6) =    -48.84717  eV     1   --> A              
     e(  7 -  7) =    -48.83222  eV     1   --> A              
     e(  8 -  8) =    -48.83191  eV     1   --> A              
     e(  9 -  9) =     -5.54775  eV     1   --> A              
     e( 10 - 10) =     -4.09073  eV     1   --> A              
     e( 11 - 11) =      3.08424  eV     1   --> A              
     e( 12 - 12) =      6.19253  eV     1   --> A              
     e( 13 - 13) =      6.20886  eV     1   --> A              
     e( 14 - 14) =      8.82731  eV     1   --> A              
     e( 15 - 15) =      8.86224  eV     1   --> A              
     e( 16 - 16) =      8.99403  eV     1   --> A              
     e( 17 - 17) =      9.64051  eV     1   --> A              
     e( 18 - 18) =      9.78671  eV     1   --> A              
     e( 19 - 19) =      9.89701  eV     1   --> A              
     e( 20 - 20) =      9.97010  eV     1   --> A              
     e( 21 - 21) =     10.06760  eV     1   --> A              
     e( 22 - 22) =     10.90806  eV     1   --> A              
     e( 23 - 23) =     11.33617  eV     1   --> A              
     e( 24 - 24) =     11.35524  eV     1   --> A              
     e( 25 - 25) =     16.26015  eV     1   --> A              
     e( 26 - 26) =     16.43321  eV     1   --> A              
     e( 27 - 27) =     16.44018  eV     1   --> A              
     e( 28 - 28) =     20.18296  eV     1   --> A              
     e( 29 - 29) =     24.64728  eV     1   --> A              
     e( 30 - 30) =     28.42603  eV     1   --> A              
     e( 31 - 31) =     28.58866  eV     1   --> A              
     e( 32 - 32) =     31.74932  eV     1   --> A              
     e( 33 - 33) =     33.34882  eV     1   --> A              
     e( 34 - 34) =     33.34895  eV     1   --> A              
     e( 35 - 35) =     33.69959  eV     1   --> A              
     e( 36 - 36) =     35.93952  eV     1   --> A              
     e( 37 - 37) =     36.72459  eV     1   --> A              
     e( 38 - 38) =     36.73023  eV     1   --> A              
     e( 39 - 39) =     37.06491  eV     1   --> A              
     e( 40 - 40) =     39.71078  eV     1   --> A              
     e( 41 - 41) =     40.24186  eV     1   --> A              
     e( 42 - 42) =     40.80557  eV     1   --> A              
     e( 43 - 43) =     40.82000  eV     1   --> A              
     e( 44 - 44) =     41.62636  eV     1   --> A              
     e( 45 - 45) =     43.49048  eV     1   --> A              
     e( 46 - 46) =     43.63464  eV     1   --> A              
     e( 47 - 47) =     50.35573  eV     1   --> A              
     e( 48 - 48) =     50.78078  eV     1   --> A              
     e( 49 - 49) =     50.78337  eV     1   --> A              
     e( 50 - 50) =     51.56780  eV     1   --> A              
     e( 51 - 51) =     54.75732  eV     1   --> A              
     e( 52 - 52) =     54.77291  eV     1   --> A              
     e( 53 - 53) =     56.22236  eV     1   --> A              
     e( 54 - 54) =     57.49147  eV     1   --> A              
     e( 55 - 55) =     58.88049  eV     1   --> A              
     e( 56 - 56) =     59.04514  eV     1   --> A              
     e( 57 - 57) =     65.14115  eV     1   --> A              
     e( 58 - 58) =     65.78761  eV     1   --> A              
     e( 59 - 59) =     67.20805  eV     1   --> A              
     e( 60 - 60) =     67.20903  eV     1   --> A              
     e( 61 - 61) =     68.02781  eV     1   --> A              
     e( 62 - 62) =     68.11209  eV     1   --> A              
     e( 63 - 63) =     70.95433  eV     1   --> A              
     e( 64 - 64) =     70.95584  eV     1   --> A              
     e( 65 - 65) =     70.97133  eV     1   --> A              
     e( 66 - 66) =     71.86368  eV     1   --> A              
     e( 67 - 67) =     71.86409  eV     1   --> A              
     e( 68 - 68) =     72.20592  eV     1   --> A              
     e( 69 - 69) =     72.49187  eV     1   --> A              
     e( 70 - 70) =     72.79331  eV     1   --> A              
     e( 71 - 71) =     72.88379  eV     1   --> A              
     e( 72 - 72) =     73.68730  eV     1   --> A              
     e( 73 - 73) =     74.21060  eV     1   --> A              
     e( 74 - 74) =     77.98502  eV     1   --> A              
     e( 75 - 75) =     79.55271  eV     1   --> A              
     e( 76 - 76) =     79.99487  eV     1   --> A              
     e( 77 - 77) =     80.73834  eV     1   --> A              
     e( 78 - 78) =     83.36428  eV     1   --> A              
     e( 79 - 79) =     83.47213  eV     1   --> A              
     e( 80 - 80) =     87.77512  eV     1   --> A              
     e( 81 - 81) =     87.79424  eV     1   --> A              
     e( 82 - 82) =     87.79783  eV     1   --> A              
     e( 83 - 83) =     87.95842  eV     1   --> A              
     e( 84 - 84) =     89.62099  eV     1   --> A              
     e( 85 - 85) =     90.23559  eV     1   --> A              
     e( 86 - 86) =     90.30606  eV     1   --> A              
     e( 87 - 87) =     90.63785  eV     1   --> A              
     e( 88 - 88) =     90.80259  eV     1   --> A              
     e( 89 - 89) =     92.08532  eV     1   --> A              
     e( 90 - 90) =     92.35813  eV     1   --> A              
     e( 91 - 91) =     92.40966  eV     1   --> A              
     e( 92 - 92) =     92.41202  eV     1   --> A              
     e( 93 - 93) =     92.89347  eV     1   --> A              
     e( 94 - 94) =     93.81824  eV     1   --> A              
     e( 95 - 95) =     93.84417  eV     1   --> A              
     e( 96 - 96) =     93.97538  eV     1   --> A              
     e( 97 - 97) =     94.76103  eV     1   --> A              
     e( 98 - 98) =     95.23386  eV     1   --> A              
     e( 99 - 99) =     95.66089  eV     1   --> A              
     e(100 -100) =     95.66251  eV     1   --> A              

 **************************************************************************

 **************************************************************************

                    xk=(   0.00000,  -0.08615,  -0.05275  )

     Band symmetry, C_1 (1)     point group:

     e(  1 -  1) =    -90.57850  eV     1   --> A              
     e(  2 -  2) =    -88.45987  eV     1   --> A              
     e(  3 -  3) =    -50.91514  eV     1   --> A              
     e(  4 -  4) =    -50.90051  eV     1   --> A              
     e(  5 -  5) =    -50.89991  eV     1   --> A              
     e(  6 -  6) =    -48.84725  eV     1   --> A              
     e(  7 -  7) =    -48.83259  eV     1   --> A              
     e(  8 -  8) =    -48.83203  eV     1   --> A              
     e(  9 -  9) =     -5.54067  eV     1   --> A              
     e( 10 - 10) =     -4.09393  eV     1   --> A              
     e( 11 - 11) =      3.11519  eV     1   --> A              
     e( 12 - 12) =      6.18495  eV     1   --> A              
     e( 13 - 13) =      6.21366  eV     1   --> A              
     e( 14 - 14) =      8.77379  eV     1   --> A              
     e( 15 - 15) =      8.84225  eV     1   --> A              
     e( 16 - 16) =      8.98483  eV     1   --> A              
     e( 17 - 17) =      9.55720  eV     1   --> A              
     e( 18 - 18) =      9.76506  eV     1   --> A              
     e( 19 - 19) =      9.88735  eV     1   --> A              
     e( 20 - 20) =      9.99602  eV     1   --> A              
     e( 21 - 21) =     10.12058  eV     1   --> A              
     e( 22 - 22) =     10.90401  eV     1   --> A              
     e( 23 - 23) =     11.33858  eV     1   --> A              
     e( 24 - 24) =     11.37060  eV     1   --> A              
     e( 25 - 25) =     16.33069  eV     1   --> A              
     e( 26 - 26) =     16.42028  eV     1   --> A              
     e( 27 - 27) =     16.43214  eV     1   --> A              
     e( 28 - 28) =     20.24720  eV     1   --> A              
     e( 29 - 29) =     24.63233  eV     1   --> A              
     e( 30 - 30) =     28.33657  eV     1   --> A              
     e( 31 - 31) =     28.62007  eV     1   --> A              
     e( 32 - 32) =     31.48771  eV     1   --> A              
     e( 33 - 33) =     33.31784  eV     1   --> A              
     e( 34 - 34) =     33.31805  eV     1   --> A              
     e( 35 - 35) =     33.84862  eV     1   --> A              
     e( 36 - 36) =     36.06997  eV     1   --> A              
     e( 37 - 37) =     36.62582  eV     1   --> A              
     e( 38 - 38) =     36.63077  eV     1   --> A              
     e( 39 - 39) =     37.20682  eV     1   --> A              
     e( 40 - 40) =     39.43677  eV     1   --> A              
     e( 41 - 41) =     40.25428  eV     1   --> A              
     e( 42 - 42) =     40.98391  eV     1   --> A              
     e( 43 - 43) =     40.99478  eV     1   --> A              
     e( 44 - 44) =     41.78556  eV     1   --> A              
     e( 45 - 45) =     43.53252  eV     1   --> A              
     e( 46 - 46) =     43.78245  eV     1   --> A              
     e( 47 - 47) =     50.17318  eV     1   --> A              
     e( 48 - 48) =     50.77760  eV     1   --> A              
     e( 49 - 49) =     50.78019  eV     1   --> A              
     e( 50 - 50) =     51.78080  eV     1   --> A              
     e( 51 - 51) =     54.70745  eV     1   --> A              
     e( 52 - 52) =     54.73117  eV     1   --> A              
     e( 53 - 53) =     56.05719  eV     1   --> A              
     e( 54 - 54) =     57.71729  eV     1   --> A              
     e( 55 - 55) =     58.81147  eV     1   --> A              
     e( 56 - 56) =     59.10983  eV     1   --> A              
     e( 57 - 57) =     64.81783  eV     1   --> A              
     e( 58 - 58) =     65.85733  eV     1   --> A              
     e( 59 - 59) =     66.72652  eV     1   --> A              
     e( 60 - 60) =     66.72680  eV     1   --> A              
     e( 61 - 61) =     68.13618  eV     1   --> A              
     e( 62 - 62) =     68.22740  eV     1   --> A              
     e( 63 - 63) =     70.96930  eV     1   --> A              
     e( 64 - 64) =     70.97041  eV     1   --> A              
     e( 65 - 65) =     70.97200  eV     1   --> A              
     e( 66 - 66) =     71.88856  eV     1   --> A              
     e( 67 - 67) =     72.38643  eV     1   --> A              
     e( 68 - 68) =     72.40001  eV     1   --> A              
     e( 69 - 69) =     72.55168  eV     1   --> A              
     e( 70 - 70) =     72.56264  eV     1   --> A              
     e( 71 - 71) =     72.86208  eV     1   --> A              
     e( 72 - 72) =     73.77697  eV     1   --> A              
     e( 73 - 73) =     74.22239  eV     1   --> A              
     e( 74 - 74) =     78.51009  eV     1   --> A              
     e( 75 - 75) =     79.11682  eV     1   --> A              
     e( 76 - 76) =     79.87981  eV     1   --> A              
     e( 77 - 77) =     80.69002  eV     1   --> A              
     e( 78 - 78) =     83.81849  eV     1   --> A              
     e( 79 - 79) =     83.88045  eV     1   --> A              
     e( 80 - 80) =     87.32833  eV     1   --> A              
     e( 81 - 81) =     87.61042  eV     1   --> A              
     e( 82 - 82) =     87.63502  eV     1   --> A              
     e( 83 - 83) =     87.63760  eV     1   --> A              
     e( 84 - 84) =     89.41078  eV     1   --> A              
     e( 85 - 85) =     89.84075  eV     1   --> A              
     e( 86 - 86) =     89.89959  eV     1   --> A              
     e( 87 - 87) =     90.42283  eV     1   --> A              
     e( 88 - 88) =     90.72235  eV     1   --> A              
     e( 89 - 89) =     91.83971  eV     1   --> A              
     e( 90 - 90) =     91.99219  eV     1   --> A              
     e( 91 - 91) =     91.99288  eV     1   --> A              
     e( 92 - 92) =     92.13251  eV     1   --> A              
     e( 93 - 93) =     92.66095  eV     1   --> A              
     e( 94 - 94) =     93.87527  eV     1   --> A              
     e( 95 - 95) =     93.88953  eV     1   --> A              
     e( 96 - 96) =     94.20877  eV     1   --> A              
     e( 97 - 97) =     95.22217  eV     1   --> A              
     e( 98 - 98) =     95.40516  eV     1   --> A              
     e( 99 - 99) =     96.03130  eV     1   --> A              
     e(100 -100) =     96.03414  eV     1   --> A              

 **************************************************************************

 **************************************************************************

                    xk=(   0.00000,  -0.10768,  -0.06594  )

     Band symmetry, C_1 (1)     point group:

     e(  1 -  1) =    -90.57855  eV     1   --> A              
     e(  2 -  2) =    -88.46004  eV     1   --> A              
     e(  3 -  3) =    -50.91525  eV     1   --> A              
     e(  4 -  4) =    -50.90087  eV     1   --> A              
     e(  5 -  5) =    -50.90012  eV     1   --> A              
     e(  6 -  6) =    -48.84736  eV     1   --> A              
     e(  7 -  7) =    -48.83307  eV     1   --> A              
     e(  8 -  8) =    -48.83218  eV     1   --> A              
     e(  9 -  9) =     -5.53148  eV     1   --> A              
     e( 10 - 10) =     -4.09797  eV     1   --> A              
     e( 11 - 11) =      3.15466  eV     1   --> A              
     e( 12 - 12) =      6.17539  eV     1   --> A              
     e( 13 - 13) =      6.21974  eV     1   --> A              
     e( 14 - 14) =      8.70102  eV     1   --> A              
     e( 15 - 15) =      8.81693  eV     1   --> A              
     e( 16 - 16) =      8.97430  eV     1   --> A              
     e( 17 - 17) =      9.47281  eV     1   --> A              
     e( 18 - 18) =      9.74551  eV     1   --> A              
     e( 19 - 19) =      9.87726  eV     1   --> A              
     e( 20 - 20) =     10.02141  eV     1   --> A              
     e( 21 - 21) =     10.16923  eV     1   --> A              
     e( 22 - 22) =     10.89875  eV     1   --> A              
     e( 23 - 23) =     11.34178  eV     1   --> A              
     e( 24 - 24) =     11.38948  eV     1   --> A              
     e( 25 - 25) =     16.40499  eV     1   --> A              
     e( 26 - 26) =     16.41877  eV     1   --> A              
     e( 27 - 27) =     16.42220  eV     1   --> A              
     e( 28 - 28) =     20.32763  eV     1   --> A              
     e( 29 - 29) =     24.61322  eV     1   --> A              
     e( 30 - 30) =     28.22769  eV     1   --> A              
     e( 31 - 31) =     28.66001  eV     1   --> A              
     e( 32 - 32) =     31.20687  eV     1   --> A              
     e( 33 - 33) =     33.27529  eV     1   --> A              
     e( 34 - 34) =     33.27564  eV     1   --> A              
     e( 35 - 35) =     33.98693  eV     1   --> A              
     e( 36 - 36) =     36.22362  eV     1   --> A              
     e( 37 - 37) =     36.51813  eV     1   --> A              
     e( 38 - 38) =     36.52196  eV     1   --> A              
     e( 39 - 39) =     37.38734  eV     1   --> A              
     e( 40 - 40) =     39.15868  eV     1   --> A              
     e( 41 - 41) =     40.26643  eV     1   --> A              
     e( 42 - 42) =     41.19932  eV     1   --> A              
     e( 43 - 43) =     41.20719  eV     1   --> A              
     e( 44 - 44) =     41.93032  eV     1   --> A              
     e( 45 - 45) =     43.58598  eV     1   --> A              
     e( 46 - 46) =     43.96187  eV     1   --> A              
     e( 47 - 47) =     49.98677  eV     1   --> A              
     e( 48 - 48) =     50.77351  eV     1   --> A              
     e( 49 - 49) =     50.77609  eV     1   --> A              
     e( 50 - 50) =     52.00677  eV     1   --> A              
     e( 51 - 51) =     54.64923  eV     1   --> A              
     e( 52 - 52) =     54.67834  eV     1   --> A              
     e( 53 - 53) =     55.90422  eV     1   --> A              
     e( 54 - 54) =     57.93083  eV     1   --> A              
     e( 55 - 55) =     58.72598  eV     1   --> A              
     e( 56 - 56) =     59.20510  eV     1   --> A              
     e( 57 - 57) =     64.46671  eV     1   --> A              
     e( 58 - 58) =     65.92829  eV     1   --> A              
     e( 59 - 59) =     66.22056  eV     1   --> A              
     e( 60 - 60) =     66.22413  eV     1   --> A              
     e( 61 - 61) =     68.16713  eV     1   --> A              
     e( 62 - 62) =     68.42235  eV     1   --> A              
     e( 63 - 63) =     70.97162  eV     1   --> A              
     e( 64 - 64) =     70.98806  eV     1   --> A              
     e( 65 - 65) =     70.98849  eV     1   --> A              
     e( 66 - 66) =     71.49877  eV     1   --> A              
     e( 67 - 67) =     72.23934  eV     1   --> A              
     e( 68 - 68) =     72.62131  eV     1   --> A              
     e( 69 - 69) =     72.93005  eV     1   --> A              
     e( 70 - 70) =     72.97182  eV     1   --> A              
     e( 71 - 71) =     72.98197  eV     1   --> A              
     e( 72 - 72) =     73.89503  eV     1   --> A              
     e( 73 - 73) =     74.23636  eV     1   --> A              
     e( 74 - 74) =     78.66272  eV     1   --> A              
     e( 75 - 75) =     79.03569  eV     1   --> A              
     e( 76 - 76) =     79.83058  eV     1   --> A              
     e( 77 - 77) =     80.64427  eV     1   --> A              
     e( 78 - 78) =     84.27805  eV     1   --> A              
     e( 79 - 79) =     84.33486  eV     1   --> A              
     e( 80 - 80) =     86.69332  eV     1   --> A              
     e( 81 - 81) =     87.37580  eV     1   --> A              
     e( 82 - 82) =     87.39896  eV     1   --> A              
     e( 83 - 83) =     87.40008  eV     1   --> A              
     e( 84 - 84) =     89.16154  eV     1   --> A              
     e( 85 - 85) =     89.41051  eV     1   --> A              
     e( 86 - 86) =     89.48810  eV     1   --> A              
     e( 87 - 87) =     90.18939  eV     1   --> A              
     e( 88 - 88) =     90.48690  eV     1   --> A              
     e( 89 - 89) =     91.30535  eV     1   --> A              
     e( 90 - 90) =     91.58039  eV     1   --> A              
     e( 91 - 91) =     91.58179  eV     1   --> A              
     e( 92 - 92) =     92.35323  eV     1   --> A              
     e( 93 - 93) =     92.39955  eV     1   --> A              
     e( 94 - 94) =     93.91920  eV     1   --> A              
     e( 95 - 95) =     93.92955  eV     1   --> A              
     e( 96 - 96) =     94.49382  eV     1   --> A              
     e( 97 - 97) =     95.49689  eV     1   --> A              
     e( 98 - 98) =     95.74424  eV     1   --> A              
     e( 99 - 99) =     96.43299  eV     1   --> A              
     e(100 -100) =     96.43686  eV     1   --> A              

 **************************************************************************

 **************************************************************************

                    xk=(   0.00000,  -0.12922,  -0.07913  )

     Band symmetry, C_1 (1)     point group:

     e(  1 -  1) =    -90.57862  eV     1   --> A              
     e(  2 -  2) =    -88.46024  eV     1   --> A              
     e(  3 -  3) =    -50.91538  eV     1   --> A              
     e(  4 -  4) =    -50.90136  eV     1   --> A              
     e(  5 -  5) =    -50.90032  eV     1   --> A              
     e(  6 -  6) =    -48.84749  eV     1   --> A              
     e(  7 -  7) =    -48.83365  eV     1   --> A              
     e(  8 -  8) =    -48.83235  eV     1   --> A              
     e(  9 -  9) =     -5.52014  eV     1   --> A              
     e( 10 - 10) =     -4.10275  eV     1   --> A              
     e( 11 - 11) =      3.20241  eV     1   --> A              
     e( 12 - 12) =      6.16397  eV     1   --> A              
     e( 13 - 13) =      6.22703  eV     1   --> A              
     e( 14 - 14) =      8.60862  eV     1   --> A              
     e( 15 - 15) =      8.78665  eV     1   --> A              
     e( 16 - 16) =      8.96111  eV     1   --> A              
     e( 17 - 17) =      9.38994  eV     1   --> A              
     e( 18 - 18) =      9.72867  eV     1   --> A              
     e( 19 - 19) =      9.86775  eV     1   --> A              
     e( 20 - 20) =     10.04581  eV     1   --> A              
     e( 21 - 21) =     10.21350  eV     1   --> A              
     e( 22 - 22) =     10.89227  eV     1   --> A              
     e( 23 - 23) =     11.34584  eV     1   --> A              
     e( 24 - 24) =     11.41132  eV     1   --> A              
     e( 25 - 25) =     16.38824  eV     1   --> A              
     e( 26 - 26) =     16.41063  eV     1   --> A              
     e( 27 - 27) =     16.52259  eV     1   --> A              
     e( 28 - 28) =     20.42279  eV     1   --> A              
     e( 29 - 29) =     24.59003  eV     1   --> A              
     e( 30 - 30) =     28.10299  eV     1   --> A              
     e( 31 - 31) =     28.70815  eV     1   --> A              
     e( 32 - 32) =     30.91463  eV     1   --> A              
     e( 33 - 33) =     33.21946  eV     1   --> A              
     e( 34 - 34) =     33.22002  eV     1   --> A              
     e( 35 - 35) =     34.10937  eV     1   --> A              
     e( 36 - 36) =     36.37729  eV     1   --> A              
     e( 37 - 37) =     36.41254  eV     1   --> A              
     e( 38 - 38) =     36.42015  eV     1   --> A              
     e( 39 - 39) =     37.60397  eV     1   --> A              
     e( 40 - 40) =     38.89482  eV     1   --> A              
     e( 41 - 41) =     40.27938  eV     1   --> A              
     e( 42 - 42) =     41.44318  eV     1   --> A              
     e( 43 - 43) =     41.44922  eV     1   --> A              
     e( 44 - 44) =     42.06084  eV     1   --> A              
     e( 45 - 45) =     43.65045  eV     1   --> A              
     e( 46 - 46) =     44.16441  eV     1   --> A              
     e( 47 - 47) =     49.79648  eV     1   --> A              
     e( 48 - 48) =     50.76852  eV     1   --> A              
     e( 49 - 49) =     50.77109  eV     1   --> A              
     e( 50 - 50) =     52.24606  eV     1   --> A              
     e( 51 - 51) =     54.58670  eV     1   --> A              
     e( 52 - 52) =     54.61503  eV     1   --> A              
     e( 53 - 53) =     55.76216  eV     1   --> A              
     e( 54 - 54) =     58.12081  eV     1   --> A              
     e( 55 - 55) =     58.62581  eV     1   --> A              
     e( 56 - 56) =     59.33970  eV     1   --> A              
     e( 57 - 57) =     64.10054  eV     1   --> A              
     e( 58 - 58) =     65.69751  eV     1   --> A              
     e( 59 - 59) =     65.70540  eV     1   --> A              
     e( 60 - 60) =     66.00606  eV     1   --> A              
     e( 61 - 61) =     68.20493  eV     1   --> A              
     e( 62 - 62) =     68.60369  eV     1   --> A              
     e( 63 - 63) =     70.96933  eV     1   --> A              
     e( 64 - 64) =     71.00449  eV     1   --> A              
     e( 65 - 65) =     71.01076  eV     1   --> A              
     e( 66 - 66) =     71.07778  eV     1   --> A              
     e( 67 - 67) =     71.94506  eV     1   --> A              
     e( 68 - 68) =     72.71269  eV     1   --> A              
     e( 69 - 69) =     73.00849  eV     1   --> A              
     e( 70 - 70) =     73.56478  eV     1   --> A              
     e( 71 - 71) =     73.56725  eV     1   --> A              
     e( 72 - 72) =     74.04111  eV     1   --> A              
     e( 73 - 73) =     74.25155  eV     1   --> A              
     e( 74 - 74) =     78.21561  eV     1   --> A              
     e( 75 - 75) =     79.36857  eV     1   --> A              
     e( 76 - 76) =     80.02962  eV     1   --> A              
     e( 77 - 77) =     80.59557  eV     1   --> A              
     e( 78 - 78) =     84.63120  eV     1   --> A              
     e( 79 - 79) =     84.89800  eV     1   --> A              
     e( 80 - 80) =     86.05943  eV     1   --> A              
     e( 81 - 81) =     87.07150  eV     1   --> A              
     e( 82 - 82) =     87.07182  eV     1   --> A              
     e( 83 - 83) =     87.07846  eV     1   --> A              
     e( 84 - 84) =     88.87205  eV     1   --> A              
     e( 85 - 85) =     88.99816  eV     1   --> A              
     e( 86 - 86) =     89.12311  eV     1   --> A              
     e( 87 - 87) =     89.94763  eV     1   --> A              
     e( 88 - 88) =     90.20969  eV     1   --> A              
     e( 89 - 89) =     90.76559  eV     1   --> A              
     e( 90 - 90) =     91.18041  eV     1   --> A              
     e( 91 - 91) =     91.18147  eV     1   --> A              
     e( 92 - 92) =     92.09875  eV     1   --> A              
     e( 93 - 93) =     92.65727  eV     1   --> A              
     e( 94 - 94) =     93.95801  eV     1   --> A              
     e( 95 - 95) =     93.96717  eV     1   --> A              
     e( 96 - 96) =     94.81405  eV     1   --> A              
     e( 97 - 97) =     95.63291  eV     1   --> A              
     e( 98 - 98) =     96.17750  eV     1   --> A              
     e( 99 - 99) =     96.82571  eV     1   --> A              
     e(100 -100) =     96.83142  eV     1   --> A              

 **************************************************************************

 **************************************************************************

                    xk=(   0.00000,  -0.15076,  -0.09232  )

     Band symmetry, C_1 (1)     point group:

     e(  1 -  1) =    -90.57869  eV     1   --> A              
     e(  2 -  2) =    -88.46046  eV     1   --> A              
     e(  3 -  3) =    -50.91553  eV     1   --> A              
     e(  4 -  4) =    -50.90194  eV     1   --> A              
     e(  5 -  5) =    -50.90054  eV     1   --> A              
     e(  6 -  6) =    -48.84765  eV     1   --> A              
     e(  7 -  7) =    -48.83432  eV     1   --> A              
     e(  8 -  8) =    -48.83256  eV     1   --> A              
     e(  9 -  9) =     -5.50657  eV     1   --> A              
     e( 10 - 10) =     -4.10823  eV     1   --> A              
     e( 11 - 11) =      3.25817  eV     1   --> A              
     e( 12 - 12) =      6.15088  eV     1   --> A              
     e( 13 - 13) =      6.23543  eV     1   --> A              
     e( 14 - 14) =      8.49701  eV     1   --> A              
     e( 15 - 15) =      8.75191  eV     1   --> A              
     e( 16 - 16) =      8.94287  eV     1   --> A              
     e( 17 - 17) =      9.31183  eV     1   --> A              
     e( 18 - 18) =      9.71482  eV     1   --> A              
     e( 19 - 19) =      9.85958  eV     1   --> A              
     e( 20 - 20) =     10.06898  eV     1   --> A              
     e( 21 - 21) =     10.25336  eV     1   --> A              
     e( 22 - 22) =     10.88461  eV     1   --> A              
     e( 23 - 23) =     11.35086  eV     1   --> A              
     e( 24 - 24) =     11.43544  eV     1   --> A              
     e( 25 - 25) =     16.37083  eV     1   --> A              
     e( 26 - 26) =     16.39775  eV     1   --> A              
     e( 27 - 27) =     16.64040  eV     1   --> A              
     e( 28 - 28) =     20.53106  eV     1   --> A              
     e( 29 - 29) =     24.56291  eV     1   --> A              
     e( 30 - 30) =     27.96614  eV     1   --> A              
     e( 31 - 31) =     28.76409  eV     1   --> A              
     e( 32 - 32) =     30.61572  eV     1   --> A              
     e( 33 - 33) =     33.14866  eV     1   --> A              
     e( 34 - 34) =     33.14949  eV     1   --> A              
     e( 35 - 35) =     34.21482  eV     1   --> A              
     e( 36 - 36) =     36.30443  eV     1   --> A              
     e( 37 - 37) =     36.31003  eV     1   --> A              
     e( 38 - 38) =     36.54401  eV     1   --> A              
     e( 39 - 39) =     37.85338  eV     1   --> A              
     e( 40 - 40) =     38.66862  eV     1   --> A              
     e( 41 - 41) =     40.29424  eV     1   --> A              
     e( 42 - 42) =     41.70816  eV     1   --> A              
     e( 43 - 43) =     41.71403  eV     1   --> A              
     e( 44 - 44) =     42.18093  eV     1   --> A              
     e( 45 - 45) =     43.72549  eV     1   --> A              
     e( 46 - 46) =     44.38114  eV     1   --> A              
     e( 47 - 47) =     49.60203  eV     1   --> A              
     e( 48 - 48) =     50.76268  eV     1   --> A              
     e( 49 - 49) =     50.76525  eV     1   --> A              
     e( 50 - 50) =     52.49935  eV     1   --> A              
     e( 51 - 51) =     54.52419  eV     1   --> A              
     e( 52 - 52) =     54.54202  eV     1   --> A              
     e( 53 - 53) =     55.62931  eV     1   --> A              
     e( 54 - 54) =     58.27835  eV     1   --> A              
     e( 55 - 55) =     58.51256  eV     1   --> A              
     e( 56 - 56) =     59.51961  eV     1   --> A              
     e( 57 - 57) =     63.72823  eV     1   --> A              
     e( 58 - 58) =     65.18530  eV     1   --> A              
     e( 59 - 59) =     65.18967  eV     1   --> A              
     e( 60 - 60) =     66.04400  eV     1   --> A              
     e( 61 - 61) =     68.24958  eV     1   --> A              
     e( 62 - 62) =     68.76824  eV     1   --> A              
     e( 63 - 63) =     70.64081  eV     1   --> A              
     e( 64 - 64) =     70.96407  eV     1   --> A              
     e( 65 - 65) =     71.03729  eV     1   --> A              
     e( 66 - 66) =     71.03915  eV     1   --> A              
     e( 67 - 67) =     71.66260  eV     1   --> A              
     e( 68 - 68) =     72.79578  eV     1   --> A              
     e( 69 - 69) =     73.08358  eV     1   --> A              
     e( 70 - 70) =     74.16473  eV     1   --> A              
     e( 71 - 71) =     74.17169  eV     1   --> A              
     e( 72 - 72) =     74.22085  eV     1   --> A              
     e( 73 - 73) =     74.26684  eV     1   --> A              
     e( 74 - 74) =     77.79565  eV     1   --> A              
     e( 75 - 75) =     79.41971  eV     1   --> A              
     e( 76 - 76) =     80.54115  eV     1   --> A              
     e( 77 - 77) =     80.55741  eV     1   --> A              
     e( 78 - 78) =     84.82315  eV     1   --> A              
     e( 79 - 79) =     85.49590  eV     1   --> A              
     e( 80 - 80) =     85.53822  eV     1   --> A              
     e( 81 - 81) =     86.64325  eV     1   --> A              
     e( 82 - 82) =     86.64451  eV     1   --> A              
     e( 83 - 83) =     86.72043  eV     1   --> A              
     e( 84 - 84) =     88.55944  eV     1   --> A              
     e( 85 - 85) =     88.62997  eV     1   --> A              
     e( 86 - 86) =     88.81999  eV     1   --> A              
     e( 87 - 87) =     89.70173  eV     1   --> A              
     e( 88 - 88) =     89.94389  eV     1   --> A              
     e( 89 - 89) =     90.22563  eV     1   --> A              
     e( 90 - 90) =     90.79555  eV     1   --> A              
     e( 91 - 91) =     90.79619  eV     1   --> A              
     e( 92 - 92) =     91.80269  eV     1   --> A              
     e( 93 - 93) =     92.96249  eV     1   --> A              
     e( 94 - 94) =     93.99440  eV     1   --> A              
     e( 95 - 95) =     94.00396  eV     1   --> A              
     e( 96 - 96) =     95.15903  eV     1   --> A              
     e( 97 - 97) =     95.72347  eV     1   --> A              
     e( 98 - 98) =     96.59407  eV     1   --> A              
     e( 99 - 99) =     96.73375  eV     1   --> A              
     e(100 -100) =     96.73784  eV     1   --> A              

 **************************************************************************

 **************************************************************************

                    xk=(   0.00000,  -0.17229,  -0.10551  )

     Band symmetry, C_1 (1)     point group:

     e(  1 -  1) =    -90.57876  eV     1   --> A              
     e(  2 -  2) =    -88.46069  eV     1   --> A              
     e(  3 -  3) =    -50.91571  eV     1   --> A              
     e(  4 -  4) =    -50.90263  eV     1   --> A              
     e(  5 -  5) =    -50.90077  eV     1   --> A              
     e(  6 -  6) =    -48.84782  eV     1   --> A              
     e(  7 -  7) =    -48.83509  eV     1   --> A              
     e(  8 -  8) =    -48.83279  eV     1   --> A              
     e(  9 -  9) =     -5.49071  eV     1   --> A              
     e( 10 - 10) =     -4.11429  eV     1   --> A              
     e( 11 - 11) =      3.32158  eV     1   --> A              
     e( 12 - 12) =      6.13632  eV     1   --> A              
     e( 13 - 13) =      6.24485  eV     1   --> A              
     e( 14 - 14) =      8.36726  eV     1   --> A              
     e( 15 - 15) =      8.71331  eV     1   --> A              
     e( 16 - 16) =      8.91604  eV     1   --> A              
     e( 17 - 17) =      9.24256  eV     1   --> A              
     e( 18 - 18) =      9.70404  eV     1   --> A              
     e( 19 - 19) =      9.85320  eV     1   --> A              
     e( 20 - 20) =     10.09086  eV     1   --> A              
     e( 21 - 21) =     10.28877  eV     1   --> A              
     e( 22 - 22) =     10.87584  eV     1   --> A              
     e( 23 - 23) =     11.35690  eV     1   --> A              
     e( 24 - 24) =     11.46116  eV     1   --> A              
     e( 25 - 25) =     16.35361  eV     1   --> A              
     e( 26 - 26) =     16.38392  eV     1   --> A              
     e( 27 - 27) =     16.77032  eV     1   --> A              
     e( 28 - 28) =     20.65065  eV     1   --> A              
     e( 29 - 29) =     24.53208  eV     1   --> A              
     e( 30 - 30) =     27.82062  eV     1   --> A              
     e( 31 - 31) =     28.82738  eV     1   --> A              
     e( 32 - 32) =     30.31325  eV     1   --> A              
     e( 33 - 33) =     33.06151  eV     1   --> A              
     e( 34 - 34) =     33.06267  eV     1   --> A              
     e( 35 - 35) =     34.30429  eV     1   --> A              
     e( 36 - 36) =     36.21605  eV     1   --> A              
     e( 37 - 37) =     36.22042  eV     1   --> A              
     e( 38 - 38) =     36.64922  eV     1   --> A              
     e( 39 - 39) =     38.13168  eV     1   --> A              
     e( 40 - 40) =     38.51555  eV     1   --> A              
     e( 41 - 41) =     40.31199  eV     1   --> A              
     e( 42 - 42) =     41.98648  eV     1   --> A              
     e( 43 - 43) =     41.99599  eV     1   --> A              
     e( 44 - 44) =     42.29683  eV     1   --> A              
     e( 45 - 45) =     43.81063  eV     1   --> A              
     e( 46 - 46) =     44.60375  eV     1   --> A              
     e( 47 - 47) =     49.40325  eV     1   --> A              
     e( 48 - 48) =     50.75610  eV     1   --> A              
     e( 49 - 49) =     50.75867  eV     1   --> A              
     e( 50 - 50) =     52.76726  eV     1   --> A              
     e( 51 - 51) =     54.46022  eV     1   --> A              
     e( 52 - 52) =     54.46602  eV     1   --> A              
     e( 53 - 53) =     55.50393  eV     1   --> A              
     e( 54 - 54) =     58.38753  eV     1   --> A              
     e( 55 - 55) =     58.40144  eV     1   --> A              
     e( 56 - 56) =     59.74300  eV     1   --> A              
     e( 57 - 57) =     63.35740  eV     1   --> A              
     e( 58 - 58) =     64.67475  eV     1   --> A              
     e( 59 - 59) =     64.67847  eV     1   --> A              
     e( 60 - 60) =     66.04078  eV     1   --> A              
     e( 61 - 61) =     68.30106  eV     1   --> A              
     e( 62 - 62) =     68.91633  eV     1   --> A              
     e( 63 - 63) =     70.23062  eV     1   --> A              
     e( 64 - 64) =     70.95463  eV     1   --> A              
     e( 65 - 65) =     71.06763  eV     1   --> A              
     e( 66 - 66) =     71.06837  eV     1   --> A              
     e( 67 - 67) =     71.40356  eV     1   --> A              
     e( 68 - 68) =     72.85316  eV     1   --> A              
     e( 69 - 69) =     73.15807  eV     1   --> A              
     e( 70 - 70) =     74.28017  eV     1   --> A              
     e( 71 - 71) =     74.40485  eV     1   --> A              
     e( 72 - 72) =     74.78637  eV     1   --> A              
     e( 73 - 73) =     74.78961  eV     1   --> A              
     e( 74 - 74) =     77.42300  eV     1   --> A              
     e( 75 - 75) =     79.41032  eV     1   --> A              
     e( 76 - 76) =     80.47918  eV     1   --> A              
     e( 77 - 77) =     81.18533  eV     1   --> A              
     e( 78 - 78) =     84.47733  eV     1   --> A              
     e( 79 - 79) =     85.49907  eV     1   --> A              
     e( 80 - 80) =     86.05180  eV     1   --> A              
     e( 81 - 81) =     86.12368  eV     1   --> A              
     e( 82 - 82) =     86.19401  eV     1   --> A              
     e( 83 - 83) =     86.31114  eV     1   --> A              
     e( 84 - 84) =     88.25766  eV     1   --> A              
     e( 85 - 85) =     88.30735  eV     1   --> A              
     e( 86 - 86) =     88.55429  eV     1   --> A              
     e( 87 - 87) =     89.46198  eV     1   --> A              
     e( 88 - 88) =     89.68828  eV     1   --> A              
     e( 89 - 89) =     89.69630  eV     1   --> A              
     e( 90 - 90) =     90.42816  eV     1   --> A              
     e( 91 - 91) =     90.42847  eV     1   --> A              
     e( 92 - 92) =     91.51830  eV     1   --> A              
     e( 93 - 93) =     93.25829  eV     1   --> A              
     e( 94 - 94) =     94.02928  eV     1   --> A              
     e( 95 - 95) =     94.04081  eV     1   --> A              
     e( 96 - 96) =     95.52003  eV     1   --> A              
     e( 97 - 97) =     95.76579  eV     1   --> A              
     e( 98 - 98) =     96.41402  eV     1   --> A              
     e( 99 - 99) =     96.42087  eV     1   --> A              
     e(100 -100) =     96.98849  eV     1   --> A              

 **************************************************************************

 **************************************************************************

                    xk=(   0.00000,  -0.19383,  -0.11870  )

     Band symmetry, C_1 (1)     point group:

     e(  1 -  1) =    -90.57884  eV     1   --> A              
     e(  2 -  2) =    -88.46094  eV     1   --> A              
     e(  3 -  3) =    -50.91591  eV     1   --> A              
     e(  4 -  4) =    -50.90339  eV     1   --> A              
     e(  5 -  5) =    -50.90102  eV     1   --> A              
     e(  6 -  6) =    -48.84802  eV     1   --> A              
     e(  7 -  7) =    -48.83594  eV     1   --> A              
     e(  8 -  8) =    -48.83305  eV     1   --> A              
     e(  9 -  9) =     -5.47249  eV     1   --> A              
     e( 10 - 10) =     -4.12087  eV     1   --> A              
     e( 11 - 11) =      3.39225  eV     1   --> A              
     e( 12 - 12) =      6.12054  eV     1   --> A              
     e( 13 - 13) =      6.25516  eV     1   --> A              
     e( 14 - 14) =      8.22103  eV     1   --> A              
     e( 15 - 15) =      8.67153  eV     1   --> A              
     e( 16 - 16) =      8.87641  eV     1   --> A              
     e( 17 - 17) =      9.18646  eV     1   --> A              
     e( 18 - 18) =      9.69622  eV     1   --> A              
     e( 19 - 19) =      9.84880  eV     1   --> A              
     e( 20 - 20) =     10.11146  eV     1   --> A              
     e( 21 - 21) =     10.31970  eV     1   --> A              
     e( 22 - 22) =     10.86610  eV     1   --> A              
     e( 23 - 23) =     11.36402  eV     1   --> A              
     e( 24 - 24) =     11.48776  eV     1   --> A              
     e( 25 - 25) =     16.33732  eV     1   --> A              
     e( 26 - 26) =     16.36955  eV     1   --> A              
     e( 27 - 27) =     16.91051  eV     1   --> A              
     e( 28 - 28) =     20.77968  eV     1   --> A              
     e( 29 - 29) =     24.49785  eV     1   --> A              
     e( 30 - 30) =     27.66967  eV     1   --> A              
     e( 31 - 31) =     28.89752  eV     1   --> A              
     e( 32 - 32) =     30.00945  eV     1   --> A              
     e( 33 - 33) =     32.95719  eV     1   --> A              
     e( 34 - 34) =     32.95874  eV     1   --> A              
     e( 35 - 35) =     34.37984  eV     1   --> A              
     e( 36 - 36) =     36.14439  eV     1   --> A              
     e( 37 - 37) =     36.14811  eV     1   --> A              
     e( 38 - 38) =     36.66425  eV     1   --> A              
     e( 39 - 39) =     38.43483  eV     1   --> A              
     e( 40 - 40) =     38.47861  eV     1   --> A              
     e( 41 - 41) =     40.33353  eV     1   --> A              
     e( 42 - 42) =     42.25977  eV     1   --> A              
     e( 43 - 43) =     42.29043  eV     1   --> A              
     e( 44 - 44) =     42.42590  eV     1   --> A              
     e( 45 - 45) =     43.90542  eV     1   --> A              
     e( 46 - 46) =     44.82510  eV     1   --> A              
     e( 47 - 47) =     49.20019  eV     1   --> A              
     e( 48 - 48) =     50.74895  eV     1   --> A              
     e( 49 - 49) =     50.75150  eV     1   --> A              
     e( 50 - 50) =     53.05029  eV     1   --> A              
     e( 51 - 51) =     54.37064  eV     1   --> A              
     e( 52 - 52) =     54.41618  eV     1   --> A              
     e( 53 - 53) =     55.38455  eV     1   --> A              
     e( 54 - 54) =     58.25161  eV     1   --> A              
     e( 55 - 55) =     58.49488  eV     1   --> A              
     e( 56 - 56) =     59.99901  eV     1   --> A              
     e( 57 - 57) =     62.99662  eV     1   --> A              
     e( 58 - 58) =     64.17172  eV     1   --> A              
     e( 59 - 59) =     64.17522  eV     1   --> A              
     e( 60 - 60) =     65.97506  eV     1   --> A              
     e( 61 - 61) =     68.35933  eV     1   --> A              
     e( 62 - 62) =     69.05023  eV     1   --> A              
     e( 63 - 63) =     69.84216  eV     1   --> A              
     e( 64 - 64) =     70.93960  eV     1   --> A              
     e( 65 - 65) =     71.10004  eV     1   --> A              
     e( 66 - 66) =     71.10172  eV     1   --> A              
     e( 67 - 67) =     71.19245  eV     1   --> A              
     e( 68 - 68) =     72.86329  eV     1   --> A              
     e( 69 - 69) =     73.22878  eV     1   --> A              
     e( 70 - 70) =     74.29047  eV     1   --> A              
     e( 71 - 71) =     74.61954  eV     1   --> A              
     e( 72 - 72) =     75.40416  eV     1   --> A              
     e( 73 - 73) =     75.40658  eV     1   --> A              
     e( 74 - 74) =     77.11869  eV     1   --> A              
     e( 75 - 75) =     79.40589  eV     1   --> A              
     e( 76 - 76) =     80.40794  eV     1   --> A              
     e( 77 - 77) =     81.84109  eV     1   --> A              
     e( 78 - 78) =     83.86372  eV     1   --> A              
     e( 79 - 79) =     85.52171  eV     1   --> A              
     e( 80 - 80) =     85.52569  eV     1   --> A              
     e( 81 - 81) =     85.67319  eV     1   --> A              
     e( 82 - 82) =     85.86881  eV     1   --> A              
     e( 83 - 83) =     86.76625  eV     1   --> A              
     e( 84 - 84) =     87.97411  eV     1   --> A              
     e( 85 - 85) =     88.01565  eV     1   --> A              
     e( 86 - 86) =     88.31894  eV     1   --> A              
     e( 87 - 87) =     89.15525  eV     1   --> A              
     e( 88 - 88) =     89.24157  eV     1   --> A              
     e( 89 - 89) =     89.45592  eV     1   --> A              
     e( 90 - 90) =     90.08035  eV     1   --> A              
     e( 91 - 91) =     90.08052  eV     1   --> A              
     e( 92 - 92) =     91.26246  eV     1   --> A              
     e( 93 - 93) =     93.53363  eV     1   --> A              
     e( 94 - 94) =     94.06274  eV     1   --> A              
     e( 95 - 95) =     94.07880  eV     1   --> A              
     e( 96 - 96) =     95.75619  eV     1   --> A              
     e( 97 - 97) =     95.87541  eV     1   --> A              
     e( 98 - 98) =     96.11480  eV     1   --> A              
     e( 99 - 99) =     96.14195  eV     1   --> A              
     e(100 -100) =     97.36081  eV     1   --> A              

 **************************************************************************

 **************************************************************************

                    xk=(   0.00000,  -0.21537,  -0.13188  )

     Band symmetry, C_1 (1)     point group:

     e(  1 -  1) =    -90.57893  eV     1   --> A              
     e(  2 -  2) =    -88.46118  eV     1   --> A              
     e(  3 -  3) =    -50.91612  eV     1   --> A              
     e(  4 -  4) =    -50.90423  eV     1   --> A              
     e(  5 -  5) =    -50.90129  eV     1   --> A              
     e(  6 -  6) =    -48.84824  eV     1   --> A              
     e(  7 -  7) =    -48.83688  eV     1   --> A              
     e(  8 -  8) =    -48.83334  eV     1   --> A              
     e(  9 -  9) =     -5.45182  eV     1   --> A              
     e( 10 - 10) =     -4.12785  eV     1   --> A              
     e( 11 - 11) =      3.46972  eV     1   --> A              
     e( 12 - 12) =      6.10383  eV     1   --> A              
     e( 13 - 13) =      6.26622  eV     1   --> A              
     e( 14 - 14) =      8.06033  eV     1   --> A              
     e( 15 - 15) =      8.62733  eV     1   --> A              
     e( 16 - 16) =      8.82158  eV     1   --> A              
     e( 17 - 17) =      9.14591  eV     1   --> A              
     e( 18 - 18) =      9.69115  eV     1   --> A              
     e( 19 - 19) =      9.84637  eV     1   --> A              
     e( 20 - 20) =     10.13086  eV     1   --> A              
     e( 21 - 21) =     10.34611  eV     1   --> A              
     e( 22 - 22) =     10.85558  eV     1   --> A              
     e( 23 - 23) =     11.37225  eV     1   --> A              
     e( 24 - 24) =     11.51453  eV     1   --> A              
     e( 25 - 25) =     16.32265  eV     1   --> A              
     e( 26 - 26) =     16.35503  eV     1   --> A              
     e( 27 - 27) =     17.05921  eV     1   --> A              
     e( 28 - 28) =     20.91609  eV     1   --> A              
     e( 29 - 29) =     24.46066  eV     1   --> A              
     e( 30 - 30) =     27.51621  eV     1   --> A              
     e( 31 - 31) =     28.97394  eV     1   --> A              
     e( 32 - 32) =     29.70604  eV     1   --> A              
     e( 33 - 33) =     32.83570  eV     1   --> A              
     e( 34 - 34) =     32.83767  eV     1   --> A              
     e( 35 - 35) =     34.44383  eV     1   --> A              
     e( 36 - 36) =     36.09262  eV     1   --> A              
     e( 37 - 37) =     36.09593  eV     1   --> A              
     e( 38 - 38) =     36.56798  eV     1   --> A              
     e( 39 - 39) =     38.57765  eV     1   --> A              
     e( 40 - 40) =     38.75896  eV     1   --> A              
     e( 41 - 41) =     40.35968  eV     1   --> A              
     e( 42 - 42) =     42.45292  eV     1   --> A              
     e( 43 - 43) =     42.59332  eV     1   --> A              
     e( 44 - 44) =     42.64219  eV     1   --> A              
     e( 45 - 45) =     44.00946  eV     1   --> A              
     e( 46 - 46) =     45.03931  eV     1   --> A              
     e( 47 - 47) =     48.99317  eV     1   --> A              
     e( 48 - 48) =     50.74150  eV     1   --> A              
     e( 49 - 49) =     50.74405  eV     1   --> A              
     e( 50 - 50) =     53.34870  eV     1   --> A              
     e( 51 - 51) =     54.27442  eV     1   --> A              
     e( 52 - 52) =     54.37814  eV     1   --> A              
     e( 53 - 53) =     55.27010  eV     1   --> A              
     e( 54 - 54) =     58.10520  eV     1   --> A              
     e( 55 - 55) =     58.56599  eV     1   --> A              
     e( 56 - 56) =     60.26889  eV     1   --> A              
     e( 57 - 57) =     62.65912  eV     1   --> A              
     e( 58 - 58) =     63.67899  eV     1   --> A              
     e( 59 - 59) =     63.68242  eV     1   --> A              
     e( 60 - 60) =     65.83361  eV     1   --> A              
     e( 61 - 61) =     68.42433  eV     1   --> A              
     e( 62 - 62) =     69.17300  eV     1   --> A              
     e( 63 - 63) =     69.46746  eV     1   --> A              
     e( 64 - 64) =     70.91743  eV     1   --> A              
     e( 65 - 65) =     71.04757  eV     1   --> A              
     e( 66 - 66) =     71.13940  eV     1   --> A              
     e( 67 - 67) =     71.14370  eV     1   --> A              
     e( 68 - 68) =     72.80384  eV     1   --> A              
     e( 69 - 69) =     73.29325  eV     1   --> A              
     e( 70 - 70) =     74.29551  eV     1   --> A              
     e( 71 - 71) =     74.84992  eV     1   --> A              
     e( 72 - 72) =     76.02089  eV     1   --> A              
     e( 73 - 73) =     76.02284  eV     1   --> A              
     e( 74 - 74) =     76.90113  eV     1   --> A              
     e( 75 - 75) =     79.41733  eV     1   --> A              
     e( 76 - 76) =     80.32518  eV     1   --> A              
     e( 77 - 77) =     82.50718  eV     1   --> A              
     e( 78 - 78) =     83.22705  eV     1   --> A              
     e( 79 - 79) =     84.89203  eV     1   --> A              
     e( 80 - 80) =     84.89363  eV     1   --> A              
     e( 81 - 81) =     85.37321  eV     1   --> A              
     e( 82 - 82) =     85.81215  eV     1   --> A              
     e( 83 - 83) =     87.34487  eV     1   --> A              
     e( 84 - 84) =     87.70138  eV     1   --> A              
     e( 85 - 85) =     87.73805  eV     1   --> A              
     e( 86 - 86) =     88.16861  eV     1   --> A              
     e( 87 - 87) =     88.62801  eV     1   --> A              
     e( 88 - 88) =     89.02495  eV     1   --> A              
     e( 89 - 89) =     89.23698  eV     1   --> A              
     e( 90 - 90) =     89.75422  eV     1   --> A              
     e( 91 - 91) =     89.75444  eV     1   --> A              
     e( 92 - 92) =     91.04838  eV     1   --> A              
     e( 93 - 93) =     93.77864  eV     1   --> A              
     e( 94 - 94) =     94.09447  eV     1   --> A              
     e( 95 - 95) =     94.12115  eV     1   --> A              
     e( 96 - 96) =     95.69522  eV     1   --> A              
     e( 97 - 97) =     95.82995  eV     1   --> A              
     e( 98 - 98) =     95.84636  eV     1   --> A              
     e( 99 - 99) =     96.30083  eV     1   --> A              
     e(100 -100) =     97.71461  eV     1   --> A              

 **************************************************************************

 **************************************************************************

                    xk=(   0.00000,  -0.23690,  -0.14507  )

     Band symmetry, C_1 (1)     point group:

     e(  1 -  1) =    -90.57901  eV     1   --> A              
     e(  2 -  2) =    -88.46143  eV     1   --> A              
     e(  3 -  3) =    -50.91636  eV     1   --> A              
     e(  4 -  4) =    -50.90514  eV     1   --> A              
     e(  5 -  5) =    -50.90158  eV     1   --> A              
     e(  6 -  6) =    -48.84848  eV     1   --> A              
     e(  7 -  7) =    -48.83788  eV     1   --> A              
     e(  8 -  8) =    -48.83365  eV     1   --> A              
     e(  9 -  9) =     -5.42863  eV     1   --> A              
     e( 10 - 10) =     -4.13514  eV     1   --> A              
     e( 11 - 11) =      3.55348  eV     1   --> A              
     e( 12 - 12) =      6.08653  eV     1   --> A              
     e( 13 - 13) =      6.27786  eV     1   --> A              
     e( 14 - 14) =      7.88724  eV     1   --> A              
     e( 15 - 15) =      8.58149  eV     1   --> A              
     e( 16 - 16) =      8.75294  eV     1   --> A              
     e( 17 - 17) =      9.11938  eV     1   --> A              
     e( 18 - 18) =      9.68854  eV     1   --> A              
     e( 19 - 19) =      9.84572  eV     1   --> A              
     e( 20 - 20) =     10.14914  eV     1   --> A              
     e( 21 - 21) =     10.36797  eV     1   --> A              
     e( 22 - 22) =     10.84456  eV     1   --> A              
     e( 23 - 23) =     11.38158  eV     1   --> A              
     e( 24 - 24) =     11.54082  eV     1   --> A              
     e( 25 - 25) =     16.31014  eV     1   --> A              
     e( 26 - 26) =     16.34079  eV     1   --> A              
     e( 27 - 27) =     17.21474  eV     1   --> A              
     e( 28 - 28) =     21.05769  eV     1   --> A              
     e( 29 - 29) =     24.42119  eV     1   --> A              
     e( 30 - 30) =     27.36282  eV     1   --> A              
     e( 31 - 31) =     29.05606  eV     1   --> A              
     e( 32 - 32) =     29.40437  eV     1   --> A              
     e( 33 - 33) =     32.69785  eV     1   --> A              
     e( 34 - 34) =     32.70027  eV     1   --> A              
     e( 35 - 35) =     34.49859  eV     1   --> A              
     e( 36 - 36) =     36.06196  eV     1   --> A              
     e( 37 - 37) =     36.06526  eV     1   --> A              
     e( 38 - 38) =     36.38203  eV     1   --> A              
     e( 39 - 39) =     38.79025  eV     1   --> A              
     e( 40 - 40) =     39.10041  eV     1   --> A              
     e( 41 - 41) =     40.39121  eV     1   --> A              
     e( 42 - 42) =     42.57416  eV     1   --> A              
     e( 43 - 43) =     42.90097  eV     1   --> A              
     e( 44 - 44) =     42.93603  eV     1   --> A              
     e( 45 - 45) =     44.12243  eV     1   --> A              
     e( 46 - 46) =     45.24167  eV     1   --> A              
     e( 47 - 47) =     48.78287  eV     1   --> A              
     e( 48 - 48) =     50.73419  eV     1   --> A              
     e( 49 - 49) =     50.73673  eV     1   --> A              
     e( 50 - 50) =     53.66234  eV     1   --> A              
     e( 51 - 51) =     54.17281  eV     1   --> A              
     e( 52 - 52) =     54.35481  eV     1   --> A              
     e( 53 - 53) =     55.16002  eV     1   --> A              
     e( 54 - 54) =     57.94824  eV     1   --> A              
     e( 55 - 55) =     58.62115  eV     1   --> A              
     e( 56 - 56) =     60.52132  eV     1   --> A              
     e( 57 - 57) =     62.37119  eV     1   --> A              
     e( 58 - 58) =     63.19862  eV     1   --> A              
     e( 59 - 59) =     63.20206  eV     1   --> A              
     e( 60 - 60) =     65.61468  eV     1   --> A              
     e( 61 - 61) =     68.49584  eV     1   --> A              
     e( 62 - 62) =     69.09195  eV     1   --> A              
     e( 63 - 63) =     69.28769  eV     1   --> A              
     e( 64 - 64) =     70.88630  eV     1   --> A              
[...]
     e( 95 - 95) =     93.96168  eV     1   --> A              
     e( 96 - 96) =     94.07320  eV     1   --> A              
     e( 97 - 97) =     94.79795  eV     1   --> A              
     e( 98 - 98) =     95.00386  eV     1   --> A              
     e( 99 - 99) =     95.21246  eV     1   --> A              
     e(100 -100) =     95.88938  eV     1   --> A              

 **************************************************************************

 **************************************************************************

                    xk=(   0.00781,  -0.02591,  -0.04231  )

     Band symmetry, C_1 (1)     point group:

     e(  1 -  1) =    -90.57841  eV     1   --> A              
     e(  2 -  2) =    -88.45962  eV     1   --> A              
     e(  3 -  3) =    -50.91500  eV     1   --> A              
     e(  4 -  4) =    -50.90021  eV     1   --> A              
     e(  5 -  5) =    -50.89947  eV     1   --> A              
     e(  6 -  6) =    -48.84711  eV     1   --> A              
     e(  7 -  7) =    -48.83204  eV     1   --> A              
     e(  8 -  8) =    -48.83176  eV     1   --> A              
     e(  9 -  9) =     -5.55282  eV     1   --> A              
     e( 10 - 10) =     -4.08706  eV     1   --> A              
     e( 11 - 11) =      3.06033  eV     1   --> A              
     e( 12 - 12) =      6.19737  eV     1   --> A              
     e( 13 - 13) =      6.20497  eV     1   --> A              
     e( 14 - 14) =      8.86472  eV     1   --> A              
     e( 15 - 15) =      8.87161  eV     1   --> A              
     e( 16 - 16) =      9.00505  eV     1   --> A              
     e( 17 - 17) =      9.71632  eV     1   --> A              
     e( 18 - 18) =      9.83668  eV     1   --> A              
     e( 19 - 19) =      9.89713  eV     1   --> A              
     e( 20 - 20) =      9.92739  eV     1   --> A              
     e( 21 - 21) =     10.01342  eV     1   --> A              
     e( 22 - 22) =     10.91119  eV     1   --> A              
     e( 23 - 23) =     11.33390  eV     1   --> A              
     e( 24 - 24) =     11.34366  eV     1   --> A              
     e( 25 - 25) =     16.20797  eV     1   --> A              
     e( 26 - 26) =     16.43993  eV     1   --> A              
     e( 27 - 27) =     16.44913  eV     1   --> A              
     e( 28 - 28) =     20.13973  eV     1   --> A              
     e( 29 - 29) =     24.65632  eV     1   --> A              
     e( 30 - 30) =     28.48592  eV     1   --> A              
     e( 31 - 31) =     28.56489  eV     1   --> A              
     e( 32 - 32) =     31.98225  eV     1   --> A              
     e( 33 - 33) =     33.32558  eV     1   --> A              
     e( 34 - 34) =     33.39030  eV     1   --> A              
     e( 35 - 35) =     33.57358  eV     1   --> A              
     e( 36 - 36) =     35.85024  eV     1   --> A              
     e( 37 - 37) =     36.72617  eV     1   --> A              
     e( 38 - 38) =     36.88148  eV     1   --> A              
     e( 39 - 39) =     36.97291  eV     1   --> A              
     e( 40 - 40) =     39.97936  eV     1   --> A              
     e( 41 - 41) =     40.19461  eV     1   --> A              
     e( 42 - 42) =     40.63593  eV     1   --> A              
     e( 43 - 43) =     40.72445  eV     1   --> A              
     e( 44 - 44) =     41.48350  eV     1   --> A              
     e( 45 - 45) =     43.47167  eV     1   --> A              
     e( 46 - 46) =     43.50323  eV     1   --> A              
     e( 47 - 47) =     50.53736  eV     1   --> A              
     e( 48 - 48) =     50.77667  eV     1   --> A              
     e( 49 - 49) =     50.78849  eV     1   --> A              
     e( 50 - 50) =     51.36803  eV     1   --> A              
     e( 51 - 51) =     54.77302  eV     1   --> A              
     e( 52 - 52) =     54.82942  eV     1   --> A              
     e( 53 - 53) =     56.63621  eV     1   --> A              
     e( 54 - 54) =     57.03062  eV     1   --> A              
     e( 55 - 55) =     58.96008  eV     1   --> A              
     e( 56 - 56) =     58.99306  eV     1   --> A              
     e( 57 - 57) =     65.41115  eV     1   --> A              
     e( 58 - 58) =     65.68266  eV     1   --> A              
     e( 59 - 59) =     67.53866  eV     1   --> A              
     e( 60 - 60) =     67.84586  eV     1   --> A              
     e( 61 - 61) =     67.88692  eV     1   --> A              
     e( 62 - 62) =     67.98364  eV     1   --> A              
     e( 63 - 63) =     70.94490  eV     1   --> A              
     e( 64 - 64) =     70.97226  eV     1   --> A              
     e( 65 - 65) =     71.04043  eV     1   --> A              
     e( 66 - 66) =     71.21258  eV     1   --> A              
     e( 67 - 67) =     71.49068  eV     1   --> A              
     e( 68 - 68) =     72.40995  eV     1   --> A              
     e( 69 - 69) =     72.43016  eV     1   --> A              
     e( 70 - 70) =     72.73096  eV     1   --> A              
     e( 71 - 71) =     73.18093  eV     1   --> A              
     e( 72 - 72) =     73.63516  eV     1   --> A              
     e( 73 - 73) =     74.20159  eV     1   --> A              
     e( 74 - 74) =     77.55845  eV     1   --> A              
     e( 75 - 75) =     79.93525  eV     1   --> A              
     e( 76 - 76) =     80.04703  eV     1   --> A              
     e( 77 - 77) =     80.81856  eV     1   --> A              
     e( 78 - 78) =     82.99615  eV     1   --> A              
     e( 79 - 79) =     83.13693  eV     1   --> A              
     e( 80 - 80) =     87.87172  eV     1   --> A              
     e( 81 - 81) =     87.89347  eV     1   --> A              
     e( 82 - 82) =     87.94067  eV     1   --> A              
     e( 83 - 83) =     88.50028  eV     1   --> A              
     e( 84 - 84) =     89.72680  eV     1   --> A              
     e( 85 - 85) =     90.46082  eV     1   --> A              
     e( 86 - 86) =     90.62321  eV     1   --> A              
     e( 87 - 87) =     90.79524  eV     1   --> A              
     e( 88 - 88) =     90.85144  eV     1   --> A              
     e( 89 - 89) =     92.24301  eV     1   --> A              
     e( 90 - 90) =     92.67539  eV     1   --> A              
     e( 91 - 91) =     92.86167  eV     1   --> A              
     e( 92 - 92) =     93.00342  eV     1   --> A              
     e( 93 - 93) =     93.07370  eV     1   --> A              
     e( 94 - 94) =     93.75394  eV     1   --> A              
     e( 95 - 95) =     93.83522  eV     1   --> A              
     e( 96 - 96) =     93.85529  eV     1   --> A              
     e( 97 - 97) =     94.31110  eV     1   --> A              
     e( 98 - 98) =     95.00351  eV     1   --> A              
     e( 99 - 99) =     95.14242  eV     1   --> A              
     e(100 -100) =     95.44779  eV     1   --> A              

 **************************************************************************

 **************************************************************************

                    xk=(   0.00391,  -0.01296,  -0.02116  )

     Band symmetry, C_1 (1)     point group:

     e(  1 -  1) =    -90.57840  eV     1   --> A              
     e(  2 -  2) =    -88.45957  eV     1   --> A              
     e(  3 -  3) =    -50.91496  eV     1   --> A              
     e(  4 -  4) =    -50.90007  eV     1   --> A              
     e(  5 -  5) =    -50.89939  eV     1   --> A              
     e(  6 -  6) =    -48.84707  eV     1   --> A              
     e(  7 -  7) =    -48.83188  eV     1   --> A              
     e(  8 -  8) =    -48.83170  eV     1   --> A              
     e(  9 -  9) =     -5.55579  eV     1   --> A              
     e( 10 - 10) =     -4.08665  eV     1   --> A              
     e( 11 - 11) =      3.04819  eV     1   --> A              
     e( 12 - 12) =      6.20127  eV     1   --> A              
     e( 13 - 13) =      6.20310  eV     1   --> A              
     e( 14 - 14) =      8.88243  eV     1   --> A              
     e( 15 - 15) =      8.88464  eV     1   --> A              
     e( 16 - 16) =      9.00876  eV     1   --> A              
     e( 17 - 17) =      9.79195  eV     1   --> A              
     e( 18 - 18) =      9.83935  eV     1   --> A              
     e( 19 - 19) =      9.90845  eV     1   --> A              
     e( 20 - 20) =      9.91650  eV     1   --> A              
     e( 21 - 21) =      9.95215  eV     1   --> A              
     e( 22 - 22) =     10.91269  eV     1   --> A              
     e( 23 - 23) =     11.33310  eV     1   --> A              
     e( 24 - 24) =     11.33720  eV     1   --> A              
     e( 25 - 25) =     16.17702  eV     1   --> A              
     e( 26 - 26) =     16.44800  eV     1   --> A              
     e( 27 - 27) =     16.45086  eV     1   --> A              
     e( 28 - 28) =     20.10855  eV     1   --> A              
     e( 29 - 29) =     24.66402  eV     1   --> A              
     e( 30 - 30) =     28.53215  eV     1   --> A              
     e( 31 - 31) =     28.55216  eV     1   --> A              
     e( 32 - 32) =     32.14557  eV     1   --> A              
     e( 33 - 33) =     33.37072  eV     1   --> A              
     e( 34 - 34) =     33.38696  eV     1   --> A              
     e( 35 - 35) =     33.43947  eV     1   --> A              
     e( 36 - 36) =     35.78207  eV     1   --> A              
     e( 37 - 37) =     36.83827  eV     1   --> A              
     e( 38 - 38) =     36.88142  eV     1   --> A              
     e( 39 - 39) =     36.90350  eV     1   --> A              
     e( 40 - 40) =     40.14974  eV     1   --> A              
     e( 41 - 41) =     40.20874  eV     1   --> A              
     e( 42 - 42) =     40.59874  eV     1   --> A              
     e( 43 - 43) =     40.61695  eV     1   --> A              
     e( 44 - 44) =     41.32162  eV     1   --> A              
     e( 45 - 45) =     43.44480  eV     1   --> A              
     e( 46 - 46) =     43.45270  eV     1   --> A              
     e( 47 - 47) =     50.69718  eV     1   --> A              
     e( 48 - 48) =     50.78311  eV     1   --> A              
     e( 49 - 49) =     50.78757  eV     1   --> A              
     e( 50 - 50) =     51.19261  eV     1   --> A              
     e( 51 - 51) =     54.81356  eV     1   --> A              
     e( 52 - 52) =     54.82803  eV     1   --> A              
     e( 53 - 53) =     56.69274  eV     1   --> A              
     e( 54 - 54) =     56.93879  eV     1   --> A              
     e( 55 - 55) =     58.96981  eV     1   --> A              
     e( 56 - 56) =     58.97801  eV     1   --> A              
     e( 57 - 57) =     65.60815  eV     1   --> A              
     e( 58 - 58) =     65.68234  eV     1   --> A              
     e( 59 - 59) =     67.71363  eV     1   --> A              
     e( 60 - 60) =     67.92612  eV     1   --> A              
     e( 61 - 61) =     68.01830  eV     1   --> A              
     e( 62 - 62) =     68.05594  eV     1   --> A              
     e( 63 - 63) =     70.92978  eV     1   --> A              
     e( 64 - 64) =     70.94537  eV     1   --> A              
     e( 65 - 65) =     70.97017  eV     1   --> A              
     e( 66 - 66) =     71.02885  eV     1   --> A              
     e( 67 - 67) =     71.08883  eV     1   --> A              
     e( 68 - 68) =     72.42296  eV     1   --> A              
     e( 69 - 69) =     72.53437  eV     1   --> A              
     e( 70 - 70) =     72.69382  eV     1   --> A              
     e( 71 - 71) =     73.46638  eV     1   --> A              
     e( 72 - 72) =     73.59145  eV     1   --> A              
     e( 73 - 73) =     74.19615  eV     1   --> A              
     e( 74 - 74) =     77.21187  eV     1   --> A              
     e( 75 - 75) =     80.17753  eV     1   --> A              
     e( 76 - 76) =     80.21970  eV     1   --> A              
     e( 77 - 77) =     80.88017  eV     1   --> A              
     e( 78 - 78) =     82.74982  eV     1   --> A              
     e( 79 - 79) =     82.79445  eV     1   --> A              
     e( 80 - 80) =     87.95523  eV     1   --> A              
     e( 81 - 81) =     87.96076  eV     1   --> A              
     e( 82 - 82) =     87.97232  eV     1   --> A              
     e( 83 - 83) =     89.03393  eV     1   --> A              
     e( 84 - 84) =     89.88148  eV     1   --> A              
     e( 85 - 85) =     90.18543  eV     1   --> A              
     e( 86 - 86) =     90.88717  eV     1   --> A              
     e( 87 - 87) =     90.93726  eV     1   --> A              
     e( 88 - 88) =     90.95892  eV     1   --> A              
     e( 89 - 89) =     92.59465  eV     1   --> A              
     e( 90 - 90) =     93.16074  eV     1   --> A              
     e( 91 - 91) =     93.18731  eV     1   --> A              
     e( 92 - 92) =     93.19017  eV     1   --> A              
     e( 93 - 93) =     93.23366  eV     1   --> A              
     e( 94 - 94) =     93.64900  eV     1   --> A              
     e( 95 - 95) =     93.70192  eV     1   --> A              
     e( 96 - 96) =     93.73411  eV     1   --> A              
     e( 97 - 97) =     93.85576  eV     1   --> A              
     e( 98 - 98) =     94.98412  eV     1   --> A              
     e( 99 - 99) =     95.04728  eV     1   --> A              
     e(100 -100) =     95.10760  eV     1   --> A              

 **************************************************************************

 **************************************************************************

                    xk=(   0.00000,   0.00000,   0.00000  )

     point group C_i (-1)   
     there are  2 classes
     the character table:

       E     i    
A_g    1.00  1.00
A_u    1.00 -1.00

     the symmetry operations in each class and the name of the first element:

     E        1
                                                                 
     i        2
                                                                 

     Band symmetry, C_i (-1)    point group:

     e(  1 -  1) =    -90.57840  eV     1   --> A_g            
     e(  2 -  2) =    -88.45955  eV     1   --> A_g            
     e(  3 -  3) =    -50.91494  eV     1   --> A_u            
     e(  4 -  4) =    -50.90003  eV     1   --> A_u            
     e(  5 -  5) =    -50.89936  eV     1   --> A_u            
     e(  6 -  6) =    -48.84705  eV     1   --> A_u            
     e(  7 -  7) =    -48.83182  eV     1   --> A_u            
     e(  8 -  8) =    -48.83167  eV     1   --> A_u            
     e(  9 -  9) =     -5.55678  eV     1   --> A_g            
     e( 10 - 10) =     -4.08651  eV     1   --> A_u            
     e( 11 - 11) =      3.04413  eV     1   --> A_g            
     e( 12 - 12) =      6.20236  eV     1   --> A_g            
     e( 13 - 13) =      6.20268  eV     1   --> A_g            
     e( 14 - 14) =      8.88803  eV     1   --> A_g            
     e( 15 - 15) =      8.88903  eV     1   --> A_g            
     e( 16 - 16) =      9.01025  eV     1   --> A_g            
     e( 17 - 17) =      9.83866  eV     1   --> A_g            
     e( 18 - 18) =      9.84125  eV     1   --> A_g            
     e( 19 - 19) =      9.90947  eV     1   --> A_u            
     e( 20 - 21) =      9.91251  eV     2   -->   2 A_u            
     e( 22 - 22) =     10.91318  eV     1   --> A_g            
     e( 23 - 23) =     11.33278  eV     1   --> A_g            
     e( 24 - 24) =     11.33502  eV     1   --> A_g            
     e( 25 - 25) =     16.16658  eV     1   --> A_g            
     e( 26 - 26) =     16.45064  eV     1   --> A_g            
     e( 27 - 27) =     16.45160  eV     1   --> A_g            
     e( 28 - 28) =     20.09808  eV     1   --> A_u            
     e( 29 - 29) =     24.66658  eV     1   --> A_g            
     e( 30 - 30) =     28.54777  eV     1   --> A_u            
     e( 31 - 31) =     28.54793  eV     1   --> A_u            
     e( 32 - 32) =     32.20903  eV     1   --> A_u            
     e( 33 - 35) =     33.38575  eV     3   -->   3 A_g            
     e( 36 - 36) =     35.75902  eV     1   --> A_g            
     e( 37 - 37) =     36.87484  eV     1   --> A_u            
     e( 38 - 38) =     36.88216  eV     1   --> A_u            
     e( 39 - 39) =     36.88231  eV     1   --> A_u            
     e( 40 - 40) =     40.21268  eV     1   --> A_g            
     e( 41 - 41) =     40.21298  eV     1   --> A_g            
     e( 42 - 42) =     40.58723  eV     1   --> A_g            
     e( 43 - 43) =     40.58762  eV     1   --> A_g            
     e( 44 - 44) =     41.25278  eV     1   --> A_u            
     e( 45 - 46) =     43.43575  eV     2   -->   2 A_u            
     e( 47 - 48) =     50.78482  eV     2   -->   2 A_u            
     e( 49 - 49) =     50.78777  eV     1   --> A_u            
     e( 50 - 50) =     51.09967  eV     1   --> A_g            
     e( 51 - 51) =     54.82733  eV     1   --> A_g            
     e( 52 - 52) =     54.82757  eV     1   --> A_g            
     e( 53 - 53) =     56.72539  eV     1   --> A_u            
     e( 54 - 54) =     56.89414  eV     1   --> A_g            
     e( 55 - 56) =     58.97296  eV     2   -->   2 A_u            
     e( 57 - 58) =     65.68226  eV     2   -->   2 A_g            
     e( 59 - 59) =     67.64739  eV     1   --> A_u            
     e( 60 - 60) =     68.07953  eV     1   --> A_u            
     e( 61 - 62) =     68.08131  eV     2   -->   2 A_u            
     e( 63 - 64) =     70.89661  eV     2   -->   2 A_g            
     e( 65 - 65) =     70.96679  eV     1   --> A_g            
     e( 66 - 67) =     70.96950  eV     2   -->   2 A_g            
     e( 68 - 68) =     72.42197  eV     1   --> A_g            
     e( 69 - 69) =     72.57470  eV     1   --> A_u            
     e( 70 - 70) =     72.68002  eV     1   --> A_u            
     e( 71 - 72) =     73.57677  eV     2   -->   2 A_u            
     e( 73 - 73) =     74.19431  eV     1   --> A_g            
     e( 74 - 74) =     77.08269  eV     1   --> A_g            
     e( 75 - 76) =     80.26912  eV     2   -->   2 A_g            
     e( 77 - 77) =     80.93242  eV     1   --> A_g            
     e( 78 - 79) =     82.65655  eV     2   -->   2 A_u            
     e( 80 - 80) =     87.98216  eV     1   --> A_u            
     e( 81 - 82) =     87.98285  eV     2   -->   2 A_u            
     e( 83 - 83) =     89.35299  eV     1   --> A_u            
     e( 84 - 85) =     89.93015  eV     2   -->   2 A_g            
     e( 86 - 87) =     90.97763  eV     2   -->   2 A_u            
     e( 88 - 88) =     91.03248  eV     1   --> A_u            
     e( 89 - 89) =     92.81568  eV     1   --> A_g            
     e( 90 - 90) =     93.22975  eV     1   --> A_u            
     e( 91 - 92) =     93.36900  eV     2   -->   2 A_u            
     e( 93 - 93) =     93.37795  eV     1   --> A_u            
     e( 94 - 95) =     93.60700  eV     2   -->   2 A_u            
     e( 96 - 97) =     93.63487  eV     2   -->   2 A_g            
     e( 98 - 99) =     94.96948  eV     2   -->   2 A_g            
     e(100 -100) =     94.97003  eV     1   --> A_g            

 **************************************************************************
 
     BANDS        :    41.71s CPU        51.52s WALL

 
   This run was terminated on:  18:13: 4   3Jan2020            

=------------------------------------------------------------------------------=
   JOB DONE.
=------------------------------------------------------------------------------=
IPL WARN> ipl_option_omp: wrong omp option 
