
     Program BANDS v.6.1 (svn rev. 13369) starts on  3Jan2020 at 22:27:17 

     This program is part of the open-source Quantum ESPRESSO suite
     for quantum simulation of materials; please cite
         "P. Giannozzi et al., J. Phys.:Condens. Matter 21 395502 (2009);
          URL http://www.quantum-espresso.org", 
     in publications or presentations arising from this work. More details at
     http://www.quantum-espresso.org/quote

     Parallel version (MPI), running on    40 processors
     R & G space division:  proc/nbgrp/npool/nimage =      40

     Reading data from directory:
     ./outdir/NiO.save

   Info: using nr1, nr2, nr3 values from input

   Info: using nr1, nr2, nr3 values from input

     IMPORTANT: XC functional enforced from input :
     Exchange-correlation      =  SLA  PW   PBX  PBC ( 1  4  3  4 0 0)
     Any further DFT definition will be discarded
     Please, verify this is what you really want

               file Ni.pbe-spn-kjpaw_psl.1.0.0.UPF: wavefunction(s)  3P 3D renormalized
               file Ni.pbe-spn-kjpaw_psl.1.0.0.UPF: wavefunction(s)  3P 3D renormalized
               file O.pbe-n-kjpaw_psl.1.0.0.UPF: wavefunction(s)  2S 2P renormalized
 
     Parallelization info
     --------------------
     sticks:   dense  smooth     PW     G-vecs:    dense   smooth      PW
     Min          82      82     22                 2333     2333     341
     Max          83      83     23                 2335     2335     344
     Sum        3287    3287    911                93351    93351   13705
 
     Generating pointlists ...
     new r_m :   0.1684 (alat units)  1.6253 (a.u.) for type    1
     new r_m :   0.1684 (alat units)  1.6253 (a.u.) for type    2
     new r_m :   0.1684 (alat units)  1.6253 (a.u.) for type    3
     high-symmetry point:  0.0000 0.0000 0.0000   x coordinate   0.0000
     high-symmetry point:  0.0000-0.9045-0.5539   x coordinate   1.0607
     high-symmetry point: -0.1875-0.6219-1.0155   x coordinate   1.6335
     high-symmetry point: -0.3438-0.1036-1.0155   x coordinate   2.1747
     high-symmetry point:  0.0000 0.0000 0.0000   x coordinate   3.2519
     high-symmetry point: -0.5000-0.1508-0.0923   x coordinate   3.7822
     high-symmetry point: -0.1875-0.9045-0.5539   x coordinate   4.7197
     high-symmetry point: -0.1875-0.6219-1.0155   x coordinate   5.2609
     high-symmetry point: -0.5000-0.1508-0.0923   x coordinate   6.3435
     high-symmetry point: -0.3438-0.1036-1.0155   x coordinate   7.2810
     high-symmetry point: -0.1875-0.9045-0.5539   x coordinate   8.2185
     high-symmetry point:  0.0000-0.9045-0.5539   x coordinate   8.4060
     high-symmetry point:  0.0000 0.0000 0.0000   x coordinate   9.4666
     high-symmetry point:  0.0000 0.0000-1.0155   x coordinate  10.4821
     high-symmetry point:  0.0000-0.6219-1.0155   x coordinate  11.1040
     high-symmetry point:  0.1875-0.6219-1.0155   x coordinate  11.2915
     high-symmetry point:  0.0000 0.0000 0.0000   x coordinate  12.4970

     Plottable bands (eV) written to file NiO.bands.dat.gnu
     Bands written to file NiO.bands.dat

 **************************************************************************

                    xk=(   0.00000,   0.00000,   0.00000  )

     point group C_i (-1)   
     there are  2 classes
     the character table:

       E     i    
A_g    1.00  1.00
A_u    1.00 -1.00

     the symmetry operations in each class and the name of the first element:

     E        1
                                                                 
     i        2
                                                                 

     Band symmetry, C_i (-1)    point group:

     e(  1 -  1) =    -90.91889  eV     1   --> A_g            
     e(  2 -  2) =    -88.69777  eV     1   --> A_g            
     e(  3 -  3) =    -51.22430  eV     1   --> A_u            
     e(  4 -  4) =    -51.20985  eV     1   --> A_u            
     e(  5 -  5) =    -51.20858  eV     1   --> A_u            
     e(  6 -  6) =    -49.05736  eV     1   --> A_u            
     e(  7 -  7) =    -49.04180  eV     1   --> A_u            
     e(  8 -  8) =    -49.04160  eV     1   --> A_u            
     e(  9 -  9) =     -5.41069  eV     1   --> A_g            
     e( 10 - 10) =     -3.91381  eV     1   --> A_u            
     e( 11 - 11) =      1.48972  eV     1   --> A_g            
     e( 12 - 12) =      4.81335  eV     1   --> A_g            
     e( 13 - 13) =      4.81398  eV     1   --> A_g            
     e( 14 - 14) =      7.40540  eV     1   --> A_g            
     e( 15 - 15) =      7.40709  eV     1   --> A_g            
     e( 16 - 16) =      7.54522  eV     1   --> A_g            
     e( 17 - 17) =      8.46411  eV     1   --> A_g            
     e( 18 - 18) =      8.46795  eV     1   --> A_g            
     e( 19 - 19) =      9.12537  eV     1   --> A_u            
     e( 20 - 21) =      9.13074  eV     2   -->   2 A_u            
     e( 22 - 22) =      9.67305  eV     1   --> A_g            
     e( 23 - 23) =     10.55182  eV     1   --> A_g            
     e( 24 - 24) =     10.55528  eV     1   --> A_g            
     e( 25 - 25) =     16.20481  eV     1   --> A_g            
     e( 26 - 26) =     17.06534  eV     1   --> A_g            
     e( 27 - 27) =     17.06648  eV     1   --> A_g            
     e( 28 - 28) =     20.11102  eV     1   --> A_u            
     e( 29 - 29) =     24.68812  eV     1   --> A_g            
     e( 30 - 30) =     28.52055  eV     1   --> A_u            
     e( 31 - 31) =     28.52083  eV     1   --> A_u            
     e( 32 - 32) =     32.20867  eV     1   --> A_u            
     e( 33 - 33) =     33.34734  eV     1   --> A_g            
     e( 34 - 34) =     33.34766  eV     1   --> A_g            
     e( 35 - 35) =     33.34784  eV     1   --> A_g            
     e( 36 - 36) =     35.70616  eV     1   --> A_g            
     e( 37 - 37) =     36.81821  eV     1   --> A_u            
     e( 38 - 38) =     36.82665  eV     1   --> A_u            
     e( 39 - 39) =     36.82691  eV     1   --> A_u            
     e( 40 - 40) =     40.19018  eV     1   --> A_g            
     e( 41 - 41) =     40.19080  eV     1   --> A_g            
     e( 42 - 42) =     40.57303  eV     1   --> A_g            
     e( 43 - 43) =     40.57366  eV     1   --> A_g            
     e( 44 - 44) =     41.27539  eV     1   --> A_u            
     e( 45 - 46) =     43.45128  eV     2   -->   2 A_u            
     e( 47 - 48) =     50.85204  eV     2   -->   2 A_u            
     e( 49 - 49) =     50.85414  eV     1   --> A_u            
     e( 50 - 50) =     51.04169  eV     1   --> A_g            
     e( 51 - 51) =     54.81292  eV     1   --> A_g            
     e( 52 - 52) =     54.81332  eV     1   --> A_g            
     e( 53 - 53) =     56.74343  eV     1   --> A_u            
     e( 54 - 54) =     56.89638  eV     1   --> A_g            
     e( 55 - 55) =     58.95751  eV     1   --> A_u            
     e( 56 - 56) =     58.95765  eV     1   --> A_u            
     e( 57 - 58) =     65.69699  eV     2   -->   2 A_g            
     e( 59 - 59) =     67.59449  eV     1   --> A_u            
     e( 60 - 60) =     68.05507  eV     1   --> A_u            
     e( 61 - 61) =     68.05780  eV     1   --> A_u            
     e( 62 - 62) =     68.05790  eV     1   --> A_u            
     e( 63 - 64) =     70.91527  eV     2   -->   2 A_g            
     e( 65 - 65) =     70.97969  eV     1   --> A_g            
     e( 66 - 67) =     70.98373  eV     2   -->   2 A_g            
     e( 68 - 68) =     72.35347  eV     1   --> A_g            
     e( 69 - 69) =     72.52255  eV     1   --> A_u            
     e( 70 - 70) =     72.72302  eV     1   --> A_u            
     e( 71 - 72) =     73.62036  eV     2   -->   2 A_u            
     e( 73 - 73) =     74.24529  eV     1   --> A_g            
     e( 74 - 74) =     77.11019  eV     1   --> A_g            
     e( 75 - 76) =     80.22935  eV     2   -->   2 A_g            
     e( 77 - 77) =     80.98858  eV     1   --> A_g            
     e( 78 - 79) =     82.64912  eV     2   -->   2 A_u            
     e( 80 - 80) =     87.97497  eV     1   --> A_u            
     e( 81 - 82) =     87.97555  eV     2   -->   2 A_u            
     e( 83 - 83) =     89.30669  eV     1   --> A_u            
     e( 84 - 84) =     89.92034  eV     1   --> A_g            
     e( 85 - 85) =     89.92048  eV     1   --> A_g            
     e( 86 - 87) =     90.96812  eV     2   -->   2 A_u            
     e( 88 - 88) =     91.03194  eV     1   --> A_u            
     e( 89 - 89) =     92.84153  eV     1   --> A_g            
     e( 90 - 90) =     93.15326  eV     1   --> A_u            
     e( 91 - 91) =     93.36712  eV     1   --> A_u            
     e( 92 - 92) =     93.36730  eV     1   --> A_u            
     e( 93 - 93) =     93.37652  eV     1   --> A_u            
     e( 94 - 94) =     93.62319  eV     1   --> A_u            
     e( 95 - 95) =     93.62337  eV     1   --> A_u            
     e( 96 - 97) =     93.63442  eV     2   -->   2 A_g            
     e( 98 - 99) =     94.99015  eV     2   -->   2 A_g            
     e(100 -100) =     94.99045  eV     1   --> A_g            

 **************************************************************************

 **************************************************************************

                    xk=(   0.00000,  -0.02154,  -0.01319  )

     point group C_1 (1)    
     there are  1 classes
     the character table:

       E    
A      1.00

     the symmetry operations in each class and the name of the first element:

     E        1
                                                                 

     Band symmetry, C_1 (1)     point group:

     e(  1 -  1) =    -90.91889  eV     1   --> A              
     e(  2 -  2) =    -88.69781  eV     1   --> A              
     e(  3 -  3) =    -51.22432  eV     1   --> A              
     e(  4 -  4) =    -51.20988  eV     1   --> A              
     e(  5 -  5) =    -51.20863  eV     1   --> A              
     e(  6 -  6) =    -49.05739  eV     1   --> A              
     e(  7 -  7) =    -49.04185  eV     1   --> A              
     e(  8 -  8) =    -49.04165  eV     1   --> A              
     e(  9 -  9) =     -5.41010  eV     1   --> A              
     e( 10 - 10) =     -3.91467  eV     1   --> A              
     e( 11 - 11) =      1.49490  eV     1   --> A              
     e( 12 - 12) =      4.81248  eV     1   --> A              
     e( 13 - 13) =      4.81448  eV     1   --> A              
     e( 14 - 14) =      7.40220  eV     1   --> A              
     e( 15 - 15) =      7.40449  eV     1   --> A              
     e( 16 - 16) =      7.54408  eV     1   --> A              
     e( 17 - 17) =      8.45828  eV     1   --> A              
     e( 18 - 18) =      8.46539  eV     1   --> A              
     e( 19 - 19) =      9.12605  eV     1   --> A              
     e( 20 - 20) =      9.12887  eV     1   --> A              
     e( 21 - 21) =      9.13075  eV     1   --> A              
     e( 22 - 22) =      9.67256  eV     1   --> A              
     e( 23 - 23) =     10.55102  eV     1   --> A              
     e( 24 - 24) =     10.55612  eV     1   --> A              
     e( 25 - 25) =     16.21510  eV     1   --> A              
     e( 26 - 26) =     17.06427  eV     1   --> A              
     e( 27 - 27) =     17.06528  eV     1   --> A              
     e( 28 - 28) =     20.12053  eV     1   --> A              
     e( 29 - 29) =     24.68585  eV     1   --> A              
     e( 30 - 30) =     28.50681  eV     1   --> A              
     e( 31 - 31) =     28.52523  eV     1   --> A              
     e( 32 - 32) =     32.14175  eV     1   --> A              
     e( 33 - 33) =     33.34347  eV     1   --> A              
     e( 34 - 34) =     33.34381  eV     1   --> A              
     e( 35 - 35) =     33.39842  eV     1   --> A              
     e( 36 - 36) =     35.72693  eV     1   --> A              
     e( 37 - 37) =     36.80085  eV     1   --> A              
     e( 38 - 38) =     36.80847  eV     1   --> A              
     e( 39 - 39) =     36.84648  eV     1   --> A              
     e( 40 - 40) =     40.12526  eV     1   --> A              
     e( 41 - 41) =     40.19623  eV     1   --> A              
     e( 42 - 42) =     40.58685  eV     1   --> A              
     e( 43 - 43) =     40.59792  eV     1   --> A              
     e( 44 - 44) =     41.33775  eV     1   --> A              
     e( 45 - 45) =     43.45743  eV     1   --> A              
     e( 46 - 46) =     43.47380  eV     1   --> A              
     e( 47 - 47) =     50.73815  eV     1   --> A              
     e( 48 - 48) =     50.85161  eV     1   --> A              
     e( 49 - 49) =     50.85342  eV     1   --> A              
     e( 50 - 50) =     51.16005  eV     1   --> A              
     e( 51 - 51) =     54.80512  eV     1   --> A              
     e( 52 - 52) =     54.80680  eV     1   --> A              
     e( 53 - 53) =     56.59908  eV     1   --> A              
     e( 54 - 54) =     57.05198  eV     1   --> A              
     e( 55 - 55) =     58.94734  eV     1   --> A              
     e( 56 - 56) =     58.96503  eV     1   --> A              
     e( 57 - 57) =     65.62363  eV     1   --> A              
     e( 58 - 58) =     65.70940  eV     1   --> A              
     e( 59 - 59) =     67.64969  eV     1   --> A              
     e( 60 - 60) =     67.93343  eV     1   --> A              
     e( 61 - 61) =     67.93584  eV     1   --> A              
     e( 62 - 62) =     68.06094  eV     1   --> A              
     e( 63 - 63) =     70.94628  eV     1   --> A              
     e( 64 - 64) =     70.94819  eV     1   --> A              
     e( 65 - 65) =     70.98362  eV     1   --> A              
     e( 66 - 66) =     71.08045  eV     1   --> A              
     e( 67 - 67) =     71.08212  eV     1   --> A              
     e( 68 - 68) =     72.36103  eV     1   --> A              
     e( 69 - 69) =     72.48378  eV     1   --> A              
     e( 70 - 70) =     72.73695  eV     1   --> A              
     e( 71 - 71) =     73.51900  eV     1   --> A              
     e( 72 - 72) =     73.63230  eV     1   --> A              
     e( 73 - 73) =     74.24716  eV     1   --> A              
     e( 74 - 74) =     77.23171  eV     1   --> A              
     e( 75 - 75) =     80.14565  eV     1   --> A              
     e( 76 - 76) =     80.18926  eV     1   --> A              
     e( 77 - 77) =     80.93594  eV     1   --> A              
     e( 78 - 78) =     82.73756  eV     1   --> A              
     e( 79 - 79) =     82.77503  eV     1   --> A              
     e( 80 - 80) =     87.95439  eV     1   --> A              
     e( 81 - 81) =     87.95561  eV     1   --> A              
     e( 82 - 82) =     87.95616  eV     1   --> A              
     e( 83 - 83) =     89.01550  eV     1   --> A              
     e( 84 - 84) =     89.88307  eV     1   --> A              
     e( 85 - 85) =     90.14385  eV     1   --> A              
     e( 86 - 86) =     90.88366  eV     1   --> A              
     e( 87 - 87) =     90.92067  eV     1   --> A              
     e( 88 - 88) =     90.95989  eV     1   --> A              
     e( 89 - 89) =     92.63454  eV     1   --> A              
     e( 90 - 90) =     93.11383  eV     1   --> A              
     e( 91 - 91) =     93.17862  eV     1   --> A              
     e( 92 - 92) =     93.17975  eV     1   --> A              
     e( 93 - 93) =     93.21314  eV     1   --> A              
     e( 94 - 94) =     93.64925  eV     1   --> A              
     e( 95 - 95) =     93.70988  eV     1   --> A              
     e( 96 - 96) =     93.72111  eV     1   --> A              
     e( 97 - 97) =     93.85866  eV     1   --> A              
     e( 98 - 98) =     95.02411  eV     1   --> A              
     e( 99 -100) =     95.09937  eV     2   -->   2 A              

 **************************************************************************

 **************************************************************************

                    xk=(   0.00000,  -0.04307,  -0.02638  )

     Band symmetry, C_1 (1)     point group:

     e(  1 -  1) =    -90.91891  eV     1   --> A              
     e(  2 -  2) =    -88.69792  eV     1   --> A              
     e(  3 -  3) =    -51.22438  eV     1   --> A              
     e(  4 -  4) =    -51.20996  eV     1   --> A              
     e(  5 -  5) =    -51.20878  eV     1   --> A              
     e(  6 -  6) =    -49.05745  eV     1   --> A              
     e(  7 -  7) =    -49.04201  eV     1   --> A              
     e(  8 -  8) =    -49.04174  eV     1   --> A              
     e(  9 -  9) =     -5.40830  eV     1   --> A              
     e( 10 - 10) =     -3.91723  eV     1   --> A              
     e( 11 - 11) =      1.51043  eV     1   --> A              
     e( 12 - 12) =      4.80954  eV     1   --> A              
     e( 13 - 13) =      4.81631  eV     1   --> A              
     e( 14 - 14) =      7.38915  eV     1   --> A              
     e( 15 - 15) =      7.39967  eV     1   --> A              
     e( 16 - 16) =      7.54098  eV     1   --> A              
     e( 17 - 17) =      8.43404  eV     1   --> A              
     e( 18 - 18) =      8.46505  eV     1   --> A              
     e( 19 - 19) =      9.11232  eV     1   --> A              
     e( 20 - 20) =      9.13059  eV     1   --> A              
     e( 21 - 21) =      9.13887  eV     1   --> A              
     e( 22 - 22) =      9.67111  eV     1   --> A              
     e( 23 - 23) =     10.54797  eV     1   --> A              
     e( 24 - 24) =     10.55932  eV     1   --> A              
     e( 25 - 25) =     16.24575  eV     1   --> A              
     e( 26 - 26) =     17.06025  eV     1   --> A              
     e( 27 - 27) =     17.06263  eV     1   --> A              
     e( 28 - 28) =     20.14887  eV     1   --> A              
     e( 29 - 29) =     24.67905  eV     1   --> A              
     e( 30 - 30) =     28.46562  eV     1   --> A              
     e( 31 - 31) =     28.53900  eV     1   --> A              
     e( 32 - 32) =     31.96943  eV     1   --> A              
     e( 33 - 33) =     33.33150  eV     1   --> A              
     e( 34 - 34) =     33.33186  eV     1   --> A              
     e( 35 - 35) =     33.52197  eV     1   --> A              
     e( 36 - 36) =     35.78822  eV     1   --> A              
     e( 37 - 37) =     36.74900  eV     1   --> A              
     e( 38 - 38) =     36.75616  eV     1   --> A              
     e( 39 - 39) =     36.90768  eV     1   --> A              
     e( 40 - 40) =     39.94614  eV     1   --> A              
     e( 41 - 41) =     40.20959  eV     1   --> A              
     e( 42 - 42) =     40.65358  eV     1   --> A              
     e( 43 - 43) =     40.67337  eV     1   --> A              
     e( 44 - 44) =     41.48060  eV     1   --> A              
     e( 45 - 45) =     43.47568  eV     1   --> A              
     e( 46 - 46) =     43.54081  eV     1   --> A              
     e( 47 - 47) =     50.56498  eV     1   --> A              
     e( 48 - 48) =     50.85010  eV     1   --> A              
     e( 49 - 49) =     50.85191  eV     1   --> A              
     e( 50 - 50) =     51.34595  eV     1   --> A              
     e( 51 - 51) =     54.78145  eV     1   --> A              
     e( 52 - 52) =     54.78813  eV     1   --> A              
     e( 53 - 53) =     56.41107  eV     1   --> A              
     e( 54 - 54) =     57.27249  eV     1   --> A              
     e( 55 - 55) =     58.91707  eV     1   --> A              
     e( 56 - 56) =     58.98813  eV     1   --> A              
     e( 57 - 57) =     65.42654  eV     1   --> A              
     e( 58 - 58) =     65.74537  eV     1   --> A              
     e( 59 - 59) =     67.61738  eV     1   --> A              
     e( 60 - 60) =     67.61929  eV     1   --> A              
     e( 61 - 61) =     67.79265  eV     1   --> A              
     e( 62 - 62) =     68.07124  eV     1   --> A              
     e( 63 - 63) =     70.95848  eV     1   --> A              
     e( 64 - 64) =     70.96088  eV     1   --> A              
     e( 65 - 65) =     70.98442  eV     1   --> A              
     e( 66 - 66) =     71.41217  eV     1   --> A              
     e( 67 - 67) =     71.41311  eV     1   --> A              
     e( 68 - 68) =     72.36495  eV     1   --> A              
     e( 69 - 69) =     72.38523  eV     1   --> A              
     e( 70 - 70) =     72.77609  eV     1   --> A              
     e( 71 - 71) =     73.25707  eV     1   --> A              
     e( 72 - 72) =     73.66847  eV     1   --> A              
     e( 73 - 73) =     74.25270  eV     1   --> A              
     e( 74 - 74) =     77.55791  eV     1   --> A              
     e( 75 - 75) =     79.89723  eV     1   --> A              
     e( 76 - 76) =     80.08757  eV     1   --> A              
     e( 77 - 77) =     80.84547  eV     1   --> A              
     e( 78 - 78) =     82.98384  eV     1   --> A              
     e( 79 - 79) =     83.08246  eV     1   --> A              
     e( 80 - 80) =     87.88921  eV     1   --> A              
     e( 81 - 81) =     87.89528  eV     1   --> A              
     e( 82 - 82) =     87.89613  eV     1   --> A              
     e( 83 - 83) =     88.50187  eV     1   --> A              
     e( 84 - 84) =     89.77610  eV     1   --> A              
     e( 85 - 85) =     90.38548  eV     1   --> A              
     e( 86 - 86) =     90.64779  eV     1   --> A              
     e( 87 - 87) =     90.78551  eV     1   --> A              
     e( 88 - 88) =     90.81625  eV     1   --> A              
     e( 89 - 89) =     92.31011  eV     1   --> A              
     e( 90 - 90) =     92.81662  eV     1   --> A              
     e( 91 - 91) =     92.81824  eV     1   --> A              
     e( 92 - 92) =     92.83390  eV     1   --> A              
     e( 93 - 93) =     92.99945  eV     1   --> A              
     e( 94 - 94) =     93.73292  eV     1   --> A              
     e( 95 - 95) =     93.78748  eV     1   --> A              
     e( 96 - 96) =     93.83039  eV     1   --> A              
     e( 97 - 97) =     94.29969  eV     1   --> A              
     e( 98 - 98) =     95.11846  eV     1   --> A              
     e( 99 - 99) =     95.35399  eV     1   --> A              
     e(100 -100) =     95.35479  eV     1   --> A              

 **************************************************************************

 **************************************************************************

                    xk=(   0.00000,  -0.06461,  -0.03957  )

     Band symmetry, C_1 (1)     point group:

     e(  1 -  1) =    -90.91893  eV     1   --> A              
     e(  2 -  2) =    -88.69809  eV     1   --> A              
     e(  3 -  3) =    -51.22449  eV     1   --> A              
     e(  4 -  4) =    -51.21012  eV     1   --> A              
     e(  5 -  5) =    -51.20900  eV     1   --> A              
     e(  6 -  6) =    -49.05756  eV     1   --> A              
     e(  7 -  7) =    -49.04231  eV     1   --> A              
     e(  8 -  8) =    -49.04186  eV     1   --> A              
     e(  9 -  9) =     -5.40528  eV     1   --> A              
     e( 10 - 10) =     -3.92143  eV     1   --> A              
     e( 11 - 11) =      1.53618  eV     1   --> A              
     e( 12 - 12) =      4.80464  eV     1   --> A              
     e( 13 - 13) =      4.81938  eV     1   --> A              
     e( 14 - 14) =      7.36560  eV     1   --> A              
     e( 15 - 15) =      7.39201  eV     1   --> A              
     e( 16 - 16) =      7.53673  eV     1   --> A              
     e( 17 - 17) =      8.39475  eV     1   --> A              
     e( 18 - 18) =      8.46503  eV     1   --> A              
     e( 19 - 19) =      9.09070  eV     1   --> A              
     e( 20 - 20) =      9.13032  eV     1   --> A              
     e( 21 - 21) =      9.15401  eV     1   --> A              
     e( 22 - 22) =      9.66865  eV     1   --> A              
     e( 23 - 23) =     10.54274  eV     1   --> A              
     e( 24 - 24) =     10.56485  eV     1   --> A              
     e( 25 - 25) =     16.29610  eV     1   --> A              
     e( 26 - 26) =     17.05345  eV     1   --> A              
     e( 27 - 27) =     17.05875  eV     1   --> A              
     e( 28 - 28) =     20.19544  eV     1   --> A              
     e( 29 - 29) =     24.66774  eV     1   --> A              
     e( 30 - 30) =     28.39899  eV     1   --> A              
     e( 31 - 31) =     28.56182  eV     1   --> A              
     e( 32 - 32) =     31.73669  eV     1   --> A              
     e( 33 - 33) =     33.31071  eV     1   --> A              
     e( 34 - 34) =     33.31112  eV     1   --> A              
     e( 35 - 35) =     33.67353  eV     1   --> A              
     e( 36 - 36) =     35.88692  eV     1   --> A              
     e( 37 - 37) =     36.66976  eV     1   --> A              
     e( 38 - 38) =     36.67634  eV     1   --> A              
     e( 39 - 39) =     37.00980  eV     1   --> A              
     e( 40 - 40) =     39.70095  eV     1   --> A              
     e( 41 - 41) =     40.22490  eV     1   --> A              
     e( 42 - 42) =     40.78145  eV     1   --> A              
     e( 43 - 43) =     40.79959  eV     1   --> A              
     e( 44 - 44) =     41.64523  eV     1   --> A              
     e( 45 - 45) =     43.50593  eV     1   --> A              
     e( 46 - 46) =     43.65046  eV     1   --> A              
     e( 47 - 47) =     50.38564  eV     1   --> A              
     e( 48 - 48) =     50.84758  eV     1   --> A              
     e( 49 - 49) =     50.84939  eV     1   --> A              
     e( 50 - 50) =     51.54663  eV     1   --> A              
     e( 51 - 51) =     54.74366  eV     1   --> A              
     e( 52 - 52) =     54.75727  eV     1   --> A              
     e( 53 - 53) =     56.23263  eV     1   --> A              
     e( 54 - 54) =     57.50067  eV     1   --> A              
     e( 55 - 55) =     58.86766  eV     1   --> A              
     e( 56 - 56) =     59.02959  eV     1   --> A              
     e( 57 - 57) =     65.14867  eV     1   --> A              
     e( 58 - 58) =     65.80114  eV     1   --> A              
     e( 59 - 59) =     67.19152  eV     1   --> A              
     e( 60 - 60) =     67.19312  eV     1   --> A              
     e( 61 - 61) =     67.98017  eV     1   --> A              
     e( 62 - 62) =     68.08841  eV     1   --> A              
     e( 63 - 63) =     70.97012  eV     1   --> A              
     e( 64 - 64) =     70.97229  eV     1   --> A              
     e( 65 - 65) =     70.98538  eV     1   --> A              
     e( 66 - 66) =     71.87052  eV     1   --> A              
     e( 67 - 67) =     71.87182  eV     1   --> A              
     e( 68 - 68) =     72.16075  eV     1   --> A              
     e( 69 - 69) =     72.42952  eV     1   --> A              
     e( 70 - 70) =     72.83402  eV     1   --> A              
     e( 71 - 71) =     72.91908  eV     1   --> A              
     e( 72 - 72) =     73.73045  eV     1   --> A              
     e( 73 - 73) =     74.26160  eV     1   --> A              
     e( 74 - 74) =     78.01525  eV     1   --> A              
     e( 75 - 75) =     79.52631  eV     1   --> A              
     e( 76 - 76) =     79.96240  eV     1   --> A              
     e( 77 - 77) =     80.77583  eV     1   --> A              
     e( 78 - 78) =     83.34941  eV     1   --> A              
     e( 79 - 79) =     83.46994  eV     1   --> A              
     e( 80 - 80) =     87.77244  eV     1   --> A              
     e( 81 - 81) =     87.78701  eV     1   --> A              
     e( 82 - 82) =     87.78969  eV     1   --> A              
     e( 83 - 83) =     87.92896  eV     1   --> A              
     e( 84 - 84) =     89.61120  eV     1   --> A              
     e( 85 - 85) =     90.22061  eV     1   --> A              
     e( 86 - 86) =     90.30302  eV     1   --> A              
     e( 87 - 87) =     90.62844  eV     1   --> A              
     e( 88 - 88) =     90.79833  eV     1   --> A              
     e( 89 - 89) =     92.10227  eV     1   --> A              
     e( 90 - 90) =     92.35479  eV     1   --> A              
     e( 91 - 91) =     92.40763  eV     1   --> A              
     e( 92 - 92) =     92.41010  eV     1   --> A              
     e( 93 - 93) =     92.82019  eV     1   --> A              
     e( 94 - 94) =     93.81624  eV     1   --> A              
     e( 95 - 95) =     93.84350  eV     1   --> A              
     e( 96 - 96) =     93.98896  eV     1   --> A              
     e( 97 - 97) =     94.77620  eV     1   --> A              
     e( 98 - 98) =     95.25632  eV     1   --> A              
     e( 99 - 99) =     95.67757  eV     1   --> A              
     e(100 -100) =     95.67983  eV     1   --> A              

 **************************************************************************

 **************************************************************************

                    xk=(   0.00000,  -0.08615,  -0.05275  )

     Band symmetry, C_1 (1)     point group:

     e(  1 -  1) =    -90.91897  eV     1   --> A              
     e(  2 -  2) =    -88.69833  eV     1   --> A              
     e(  3 -  3) =    -51.22463  eV     1   --> A              
     e(  4 -  4) =    -51.21036  eV     1   --> A              
     e(  5 -  5) =    -51.20929  eV     1   --> A              
     e(  6 -  6) =    -49.05770  eV     1   --> A              
     e(  7 -  7) =    -49.04273  eV     1   --> A              
     e(  8 -  8) =    -49.04200  eV     1   --> A              
     e(  9 -  9) =     -5.40095  eV     1   --> A              
     e( 10 - 10) =     -3.92722  eV     1   --> A              
     e( 11 - 11) =      1.57199  eV     1   --> A              
     e( 12 - 12) =      4.79787  eV     1   --> A              
     e( 13 - 13) =      4.82362  eV     1   --> A              
     e( 14 - 14) =      7.32998  eV     1   --> A              
     e( 15 - 15) =      7.38147  eV     1   --> A              
     e( 16 - 16) =      7.53217  eV     1   --> A              
     e( 17 - 17) =      8.34257  eV     1   --> A              
     e( 18 - 18) =      8.46521  eV     1   --> A              
     e( 19 - 19) =      9.06284  eV     1   --> A              
     e( 20 - 20) =      9.12987  eV     1   --> A              
     e( 21 - 21) =      9.17262  eV     1   --> A              
     e( 22 - 22) =      9.66518  eV     1   --> A              
     e( 23 - 23) =     10.53573  eV     1   --> A              
     e( 24 - 24) =     10.57244  eV     1   --> A              
     e( 25 - 25) =     16.36508  eV     1   --> A              
     e( 26 - 26) =     17.04460  eV     1   --> A              
     e( 27 - 27) =     17.05356  eV     1   --> A              
     e( 28 - 28) =     20.25933  eV     1   --> A              
     e( 29 - 29) =     24.65195  eV     1   --> A              
     e( 30 - 30) =     28.30966  eV     1   --> A              
     e( 31 - 31) =     28.59350  eV     1   --> A              
     e( 32 - 32) =     31.47132  eV     1   --> A              
     e( 33 - 33) =     33.27993  eV     1   --> A              
     e( 34 - 34) =     33.28043  eV     1   --> A              
     e( 35 - 35) =     33.82593  eV     1   --> A              
     e( 36 - 36) =     36.01760  eV     1   --> A              
     e( 37 - 37) =     36.57208  eV     1   --> A              
     e( 38 - 38) =     36.57787  eV     1   --> A              
     e( 39 - 39) =     37.15224  eV     1   --> A              
     e( 40 - 40) =     39.42803  eV     1   --> A              
     e( 41 - 41) =     40.23934  eV     1   --> A              
     e( 42 - 42) =     40.95805  eV     1   --> A              
     e( 43 - 43) =     40.97183  eV     1   --> A              
     e( 44 - 44) =     41.80421  eV     1   --> A              
     e( 45 - 45) =     43.54791  eV     1   --> A              
     e( 46 - 46) =     43.79859  eV     1   --> A              
     e( 47 - 47) =     50.20360  eV     1   --> A              
     e( 48 - 48) =     50.84403  eV     1   --> A              
     e( 49 - 49) =     50.84584  eV     1   --> A              
     e( 50 - 50) =     51.75879  eV     1   --> A              
     e( 51 - 51) =     54.69428  eV     1   --> A              
     e( 52 - 52) =     54.71459  eV     1   --> A              
     e( 53 - 53) =     56.06670  eV     1   --> A              
     e( 54 - 54) =     57.72639  eV     1   --> A              
     e( 55 - 55) =     58.80053  eV     1   --> A              
     e( 56 - 56) =     59.09442  eV     1   --> A              
     e( 57 - 57) =     64.82325  eV     1   --> A              
     e( 58 - 58) =     65.87004  eV     1   --> A              
     e( 59 - 59) =     66.71223  eV     1   --> A              
     e( 60 - 60) =     66.71302  eV     1   --> A              
     e( 61 - 61) =     68.11243  eV     1   --> A              
     e( 62 - 62) =     68.18051  eV     1   --> A              
     e( 63 - 63) =     70.98515  eV     1   --> A              
     e( 64 - 64) =     70.98598  eV     1   --> A              
     e( 65 - 65) =     70.98693  eV     1   --> A              
     e( 66 - 66) =     71.84967  eV     1   --> A              
     e( 67 - 67) =     72.38281  eV     1   --> A              
     e( 68 - 68) =     72.40732  eV     1   --> A              
     e( 69 - 69) =     72.51085  eV     1   --> A              
     e( 70 - 70) =     72.57687  eV     1   --> A              
     e( 71 - 71) =     72.90353  eV     1   --> A              
     e( 72 - 72) =     73.82000  eV     1   --> A              
     e( 73 - 73) =     74.27340  eV     1   --> A              
     e( 74 - 74) =     78.54001  eV     1   --> A              
     e( 75 - 75) =     79.09382  eV     1   --> A              
     e( 76 - 76) =     79.85139  eV     1   --> A              
     e( 77 - 77) =     80.72267  eV     1   --> A              
     e( 78 - 78) =     83.80054  eV     1   --> A              
     e( 79 - 79) =     83.87955  eV     1   --> A              
     e( 80 - 80) =     87.30358  eV     1   --> A              
     e( 81 - 81) =     87.61054  eV     1   --> A              
     e( 82 - 82) =     87.62603  eV     1   --> A              
     e( 83 - 83) =     87.62775  eV     1   --> A              
     e( 84 - 84) =     89.40061  eV     1   --> A              
     e( 85 - 85) =     89.83299  eV     1   --> A              
     e( 86 - 86) =     89.90049  eV     1   --> A              
     e( 87 - 87) =     90.41021  eV     1   --> A              
     e( 88 - 88) =     90.72280  eV     1   --> A              
     e( 89 - 89) =     91.83622  eV     1   --> A              
     e( 90 - 90) =     91.98913  eV     1   --> A              
     e( 91 - 91) =     91.98979  eV     1   --> A              
     e( 92 - 92) =     92.13903  eV     1   --> A              
     e( 93 - 93) =     92.58958  eV     1   --> A              
     e( 94 - 94) =     93.87244  eV     1   --> A              
     e( 95 - 95) =     93.88866  eV     1   --> A              
     e( 96 - 96) =     94.22134  eV     1   --> A              
     e( 97 - 97) =     95.23573  eV     1   --> A              
     e( 98 - 98) =     95.42959  eV     1   --> A              
     e( 99 - 99) =     96.04772  eV     1   --> A              
     e(100 -100) =     96.05136  eV     1   --> A              

 **************************************************************************

 **************************************************************************

                    xk=(   0.00000,  -0.10768,  -0.06594  )

     Band symmetry, C_1 (1)     point group:

     e(  1 -  1) =    -90.91901  eV     1   --> A              
     e(  2 -  2) =    -88.69862  eV     1   --> A              
     e(  3 -  3) =    -51.22481  eV     1   --> A              
     e(  4 -  4) =    -51.21071  eV     1   --> A              
     e(  5 -  5) =    -51.20961  eV     1   --> A              
     e(  6 -  6) =    -49.05788  eV     1   --> A              
     e(  7 -  7) =    -49.04329  eV     1   --> A              
     e(  8 -  8) =    -49.04218  eV     1   --> A              
     e(  9 -  9) =     -5.39524  eV     1   --> A              
     e( 10 - 10) =     -3.93448  eV     1   --> A              
     e( 11 - 11) =      1.61760  eV     1   --> A              
     e( 12 - 12) =      4.78933  eV     1   --> A              
     e( 13 - 13) =      4.82898  eV     1   --> A              
     e( 14 - 14) =      7.28060  eV     1   --> A              
     e( 15 - 15) =      7.36819  eV     1   --> A              
     e( 16 - 16) =      7.52788  eV     1   --> A              
     e( 17 - 17) =      8.27969  eV     1   --> A              
     e( 18 - 18) =      8.46571  eV     1   --> A              
     e( 19 - 19) =      9.03073  eV     1   --> A              
     e( 20 - 20) =      9.12920  eV     1   --> A              
     e( 21 - 21) =      9.19304  eV     1   --> A              
     e( 22 - 22) =      9.66065  eV     1   --> A              
     e( 23 - 23) =     10.52737  eV     1   --> A              
     e( 24 - 24) =     10.58180  eV     1   --> A              
     e( 25 - 25) =     16.45134  eV     1   --> A              
     e( 26 - 26) =     17.03434  eV     1   --> A              
     e( 27 - 27) =     17.04719  eV     1   --> A              
     e( 28 - 28) =     20.33932  eV     1   --> A              
     e( 29 - 29) =     24.63174  eV     1   --> A              
     e( 30 - 30) =     28.20100  eV     1   --> A              
     e( 31 - 31) =     28.63379  eV     1   --> A              
     e( 32 - 32) =     31.18753  eV     1   --> A              
     e( 33 - 33) =     33.23762  eV     1   --> A              
     e( 34 - 34) =     33.23826  eV     1   --> A              
     e( 35 - 35) =     33.96650  eV     1   --> A              
     e( 36 - 36) =     36.17152  eV     1   --> A              
     e( 37 - 37) =     36.46571  eV     1   --> A              
     e( 38 - 38) =     36.47011  eV     1   --> A              
     e( 39 - 39) =     37.33361  eV     1   --> A              
     e( 40 - 40) =     39.14996  eV     1   --> A              
     e( 41 - 41) =     40.25306  eV     1   --> A              
     e( 42 - 42) =     41.17225  eV     1   --> A              
     e( 43 - 43) =     41.18224  eV     1   --> A              
     e( 44 - 44) =     41.94906  eV     1   --> A              
     e( 45 - 45) =     43.60132  eV     1   --> A              
     e( 46 - 46) =     43.97851  eV     1   --> A              
     e( 47 - 47) =     50.01870  eV     1   --> A              
     e( 48 - 48) =     50.83944  eV     1   --> A              
     e( 49 - 49) =     50.84126  eV     1   --> A              
     e( 50 - 50) =     51.98284  eV     1   --> A              
     e( 51 - 51) =     54.63668  eV     1   --> A              
     e( 52 - 52) =     54.66058  eV     1   --> A              
     e( 53 - 53) =     55.91297  eV     1   --> A              
     e( 54 - 54) =     57.93925  eV     1   --> A              
     e( 55 - 55) =     58.71730  eV     1   --> A              
     e( 56 - 56) =     59.19029  eV     1   --> A              
     e( 57 - 57) =     64.47060  eV     1   --> A              
     e( 58 - 58) =     65.93962  eV     1   --> A              
     e( 59 - 59) =     66.20832  eV     1   --> A              
     e( 60 - 60) =     66.21204  eV     1   --> A              
     e( 61 - 61) =     68.14330  eV     1   --> A              
     e( 62 - 62) =     68.37549  eV     1   --> A              
     e( 63 - 63) =     70.98553  eV     1   --> A              
     e( 64 - 64) =     71.00414  eV     1   --> A              
     e( 65 - 65) =     71.00489  eV     1   --> A              
     e( 66 - 66) =     71.46962  eV     1   --> A              
     e( 67 - 67) =     72.25423  eV     1   --> A              
     e( 68 - 68) =     72.56068  eV     1   --> A              
     e( 69 - 69) =     72.96263  eV     1   --> A              
     e( 70 - 70) =     72.97710  eV     1   --> A              
     e( 71 - 71) =     72.99683  eV     1   --> A              
     e( 72 - 72) =     73.93810  eV     1   --> A              
     e( 73 - 73) =     74.28737  eV     1   --> A              
     e( 74 - 74) =     78.64097  eV     1   --> A              
     e( 75 - 75) =     79.05869  eV     1   --> A              
     e( 76 - 76) =     79.81212  eV     1   --> A              
     e( 77 - 77) =     80.67420  eV     1   --> A              
     e( 78 - 78) =     84.27817  eV     1   --> A              
     e( 79 - 79) =     84.31418  eV     1   --> A              
     e( 80 - 80) =     86.66975  eV     1   --> A              
     e( 81 - 81) =     87.38061  eV     1   --> A              
     e( 82 - 82) =     87.38880  eV     1   --> A              
     e( 83 - 83) =     87.38969  eV     1   --> A              
     e( 84 - 84) =     89.15096  eV     1   --> A              
     e( 85 - 85) =     89.40709  eV     1   --> A              
     e( 86 - 86) =     89.49318  eV     1   --> A              
     e( 87 - 87) =     90.17384  eV     1   --> A              
     e( 88 - 88) =     90.49117  eV     1   --> A              
     e( 89 - 89) =     91.30181  eV     1   --> A              
     e( 90 - 90) =     91.57605  eV     1   --> A              
     e( 91 - 91) =     91.57759  eV     1   --> A              
     e( 92 - 92) =     92.31324  eV     1   --> A              
     e( 93 - 93) =     92.36917  eV     1   --> A              
     e( 94 - 94) =     93.91642  eV     1   --> A              
     e( 95 - 95) =     93.92852  eV     1   --> A              
     e( 96 - 96) =     94.50486  eV     1   --> A              
     e( 97 - 97) =     95.51909  eV     1   --> A              
     e( 98 - 98) =     95.76099  eV     1   --> A              
     e( 99 - 99) =     96.45033  eV     1   --> A              
     e(100 -100) =     96.45512  eV     1   --> A              

 **************************************************************************

 **************************************************************************

                    xk=(   0.00000,  -0.12922,  -0.07913  )

     Band symmetry, C_1 (1)     point group:

     e(  1 -  1) =    -90.91906  eV     1   --> A              
     e(  2 -  2) =    -88.69897  eV     1   --> A              
     e(  3 -  3) =    -51.22504  eV     1   --> A              
     e(  4 -  4) =    -51.21120  eV     1   --> A              
     e(  5 -  5) =    -51.20993  eV     1   --> A              
     e(  6 -  6) =    -49.05811  eV     1   --> A              
     e(  7 -  7) =    -49.04396  eV     1   --> A              
     e(  8 -  8) =    -49.04240  eV     1   --> A              
     e(  9 -  9) =     -5.38804  eV     1   --> A              
     e( 10 - 10) =     -3.94311  eV     1   --> A              
     e( 11 - 11) =      1.67272  eV     1   --> A              
     e( 12 - 12) =      4.77915  eV     1   --> A              
     e( 13 - 13) =      4.83538  eV     1   --> A              
     e( 14 - 14) =      7.21596  eV     1   --> A              
     e( 15 - 15) =      7.35236  eV     1   --> A              
     e( 16 - 16) =      7.52398  eV     1   --> A              
     e( 17 - 17) =      8.20843  eV     1   --> A              
     e( 18 - 18) =      8.46665  eV     1   --> A              
     e( 19 - 19) =      8.99637  eV     1   --> A              
     e( 20 - 20) =      9.12823  eV     1   --> A              
     e( 21 - 21) =      9.21385  eV     1   --> A              
     e( 22 - 22) =      9.65503  eV     1   --> A              
     e( 23 - 23) =     10.51816  eV     1   --> A              
     e( 24 - 24) =     10.59266  eV     1   --> A              
     e( 25 - 25) =     16.55330  eV     1   --> A              
     e( 26 - 26) =     17.02335  eV     1   --> A              
     e( 27 - 27) =     17.03983  eV     1   --> A              
     e( 28 - 28) =     20.43397  eV     1   --> A              
     e( 29 - 29) =     24.60719  eV     1   --> A              
     e( 30 - 30) =     28.07666  eV     1   --> A              
     e( 31 - 31) =     28.68234  eV     1   --> A              
     e( 32 - 32) =     30.89298  eV     1   --> A              
     e( 33 - 33) =     33.18204  eV     1   --> A              
     e( 34 - 34) =     33.18289  eV     1   --> A              
     e( 35 - 35) =     34.09023  eV     1   --> A              
     e( 36 - 36) =     36.32294  eV     1   --> A              
     e( 37 - 37) =     36.36178  eV     1   --> A              
     e( 38 - 38) =     36.37207  eV     1   --> A              
     e( 39 - 39) =     37.55144  eV     1   --> A              
     e( 40 - 40) =     38.88525  eV     1   --> A              
     e( 41 - 41) =     40.26723  eV     1   --> A              
     e( 42 - 42) =     41.41525  eV     1   --> A              
     e( 43 - 43) =     41.42276  eV     1   --> A              
     e( 44 - 44) =     42.07977  eV     1   --> A              
     e( 45 - 45) =     43.66575  eV     1   --> A              
     e( 46 - 46) =     44.18172  eV     1   --> A              
     e( 47 - 47) =     49.83029  eV     1   --> A              
     e( 48 - 48) =     50.83383  eV     1   --> A              
     e( 49 - 49) =     50.83565  eV     1   --> A              
     e( 50 - 50) =     52.21977  eV     1   --> A              
     e( 51 - 51) =     54.57486  eV     1   --> A              
     e( 52 - 52) =     54.59590  eV     1   --> A              
     e( 53 - 53) =     55.77012  eV     1   --> A              
     e( 54 - 54) =     58.12775  eV     1   --> A              
     e( 55 - 55) =     58.61968  eV     1   --> A              
     e( 56 - 56) =     59.32621  eV     1   --> A              
     e( 57 - 57) =     64.10323  eV     1   --> A              
     e( 58 - 58) =     65.68606  eV     1   --> A              
     e( 59 - 59) =     65.69431  eV     1   --> A              
     e( 60 - 60) =     66.01727  eV     1   --> A              
     e( 61 - 61) =     68.18101  eV     1   --> A              
     e( 62 - 62) =     68.55645  eV     1   --> A              
     e( 63 - 63) =     70.98312  eV     1   --> A              
     e( 64 - 64) =     71.01086  eV     1   --> A              
     e( 65 - 65) =     71.02708  eV     1   --> A              
     e( 66 - 66) =     71.06362  eV     1   --> A              
     e( 67 - 67) =     71.95416  eV     1   --> A              
     e( 68 - 68) =     72.65253  eV     1   --> A              
     e( 69 - 69) =     73.05309  eV     1   --> A              
     e( 70 - 70) =     73.56858  eV     1   --> A              
     e( 71 - 71) =     73.57101  eV     1   --> A              
     e( 72 - 72) =     74.08433  eV     1   --> A              
     e( 73 - 73) =     74.30256  eV     1   --> A              
     e( 74 - 74) =     78.19360  eV     1   --> A              
     e( 75 - 75) =     79.36219  eV     1   --> A              
     e( 76 - 76) =     80.04292  eV     1   --> A              
     e( 77 - 77) =     80.62401  eV     1   --> A              
     e( 78 - 78) =     84.63161  eV     1   --> A              
     e( 79 - 79) =     84.87487  eV     1   --> A              
     e( 80 - 80) =     86.03850  eV     1   --> A              
     e( 81 - 81) =     87.06012  eV     1   --> A              
     e( 82 - 82) =     87.06048  eV     1   --> A              
     e( 83 - 83) =     87.08812  eV     1   --> A              
     e( 84 - 84) =     88.86318  eV     1   --> A              
     e( 85 - 85) =     88.99827  eV     1   --> A              
     e( 86 - 86) =     89.13022  eV     1   --> A              
     e( 87 - 87) =     89.92986  eV     1   --> A              
     e( 88 - 88) =     90.21308  eV     1   --> A              
     e( 89 - 89) =     90.76209  eV     1   --> A              
     e( 90 - 90) =     91.17469  eV     1   --> A              
     e( 91 - 91) =     91.17596  eV     1   --> A              
     e( 92 - 92) =     92.03137  eV     1   --> A              
     e( 93 - 93) =     92.65309  eV     1   --> A              
     e( 94 - 94) =     93.95528  eV     1   --> A              
     e( 95 - 95) =     93.96601  eV     1   --> A              
     e( 96 - 96) =     94.82385  eV     1   --> A              
     e( 97 - 97) =     95.65991  eV     1   --> A              
     e( 98 - 98) =     96.19088  eV     1   --> A              
     e( 99 - 99) =     96.84670  eV     1   --> A              
     e(100 -100) =     96.85352  eV     1   --> A              

 **************************************************************************

 **************************************************************************

                    xk=(   0.00000,  -0.15076,  -0.09232  )

     Band symmetry, C_1 (1)     point group:

     e(  1 -  1) =    -90.91912  eV     1   --> A              
     e(  2 -  2) =    -88.69935  eV     1   --> A              
     e(  3 -  3) =    -51.22530  eV     1   --> A              
     e(  4 -  4) =    -51.21183  eV     1   --> A              
     e(  5 -  5) =    -51.21024  eV     1   --> A              
     e(  6 -  6) =    -49.05837  eV     1   --> A              
     e(  7 -  7) =    -49.04475  eV     1   --> A              
     e(  8 -  8) =    -49.04265  eV     1   --> A              
     e(  9 -  9) =     -5.37922  eV     1   --> A              
     e( 10 - 10) =     -3.95295  eV     1   --> A              
     e( 11 - 11) =      1.73696  eV     1   --> A              
     e( 12 - 12) =      4.76748  eV     1   --> A              
     e( 13 - 13) =      4.84273  eV     1   --> A              
     e( 14 - 14) =      7.13483  eV     1   --> A              
     e( 15 - 15) =      7.33423  eV     1   --> A              
     e( 16 - 16) =      7.52027  eV     1   --> A              
     e( 17 - 17) =      8.13122  eV     1   --> A              
     e( 18 - 18) =      8.46817  eV     1   --> A              
     e( 19 - 19) =      8.96159  eV     1   --> A              
     e( 20 - 20) =      9.12690  eV     1   --> A              
     e( 21 - 21) =      9.23387  eV     1   --> A              
     e( 22 - 22) =      9.64830  eV     1   --> A              
     e( 23 - 23) =     10.50865  eV     1   --> A              
     e( 24 - 24) =     10.60468  eV     1   --> A              
     e( 25 - 25) =     16.66924  eV     1   --> A              
     e( 26 - 26) =     17.01233  eV     1   --> A              
     e( 27 - 27) =     17.03171  eV     1   --> A              
     e( 28 - 28) =     20.54167  eV     1   --> A              
     e( 29 - 29) =     24.57843  eV     1   --> A              
     e( 30 - 30) =     27.94031  eV     1   --> A              
     e( 31 - 31) =     28.73878  eV     1   --> A              
     e( 32 - 32) =     30.59225  eV     1   --> A              
     e( 33 - 33) =     33.11149  eV     1   --> A              
     e( 34 - 34) =     33.11262  eV     1   --> A              
     e( 35 - 35) =     34.19617  eV     1   --> A              
     e( 36 - 36) =     36.25308  eV     1   --> A              
     e( 37 - 37) =     36.26038  eV     1   --> A              
     e( 38 - 38) =     36.49596  eV     1   --> A              
     e( 39 - 39) =     37.80233  eV     1   --> A              
     e( 40 - 40) =     38.65708  eV     1   --> A              
     e( 41 - 41) =     40.28306  eV     1   --> A              
     e( 42 - 42) =     41.67969  eV     1   --> A              
     e( 43 - 43) =     41.68644  eV     1   --> A              
     e( 44 - 44) =     42.20005  eV     1   --> A              
     e( 45 - 45) =     43.74078  eV     1   --> A              
     e( 46 - 46) =     44.39924  eV     1   --> A              
     e( 47 - 47) =     49.63782  eV     1   --> A              
     e( 48 - 48) =     50.82723  eV     1   --> A              
     e( 49 - 49) =     50.82905  eV     1   --> A              
     e( 50 - 50) =     52.47053  eV     1   --> A              
     e( 51 - 51) =     54.51312  eV     1   --> A              
     e( 52 - 52) =     54.52137  eV     1   --> A              
     e( 53 - 53) =     55.63649  eV     1   --> A              
     e( 54 - 54) =     58.28302  eV     1   --> A              
     e( 55 - 55) =     58.50917  eV     1   --> A              
     e( 56 - 56) =     59.50823  eV     1   --> A              
     e( 57 - 57) =     63.72986  eV     1   --> A              
     e( 58 - 58) =     65.17452  eV     1   --> A              
     e( 59 - 59) =     65.17946  eV     1   --> A              
     e( 60 - 60) =     66.05508  eV     1   --> A              
     e( 61 - 61) =     68.22555  eV     1   --> A              
     e( 62 - 62) =     68.72049  eV     1   --> A              
     e( 63 - 63) =     70.61587  eV     1   --> A              
     e( 64 - 64) =     70.97770  eV     1   --> A              
     e( 65 - 65) =     71.05388  eV     1   --> A              
     e( 66 - 66) =     71.05656  eV     1   --> A              
     e( 67 - 67) =     71.67040  eV     1   --> A              
     e( 68 - 68) =     72.73783  eV     1   --> A              
     e( 69 - 69) =     73.12957  eV     1   --> A              
     e( 70 - 70) =     74.16977  eV     1   --> A              
     e( 71 - 71) =     74.17435  eV     1   --> A              
     e( 72 - 72) =     74.26139  eV     1   --> A              
     e( 73 - 73) =     74.31779  eV     1   --> A              
     e( 74 - 74) =     77.77223  eV     1   --> A              
     e( 75 - 75) =     79.39946  eV     1   --> A              
     e( 76 - 76) =     80.56882  eV     1   --> A              
     e( 77 - 77) =     80.58641  eV     1   --> A              
     e( 78 - 78) =     84.81741  eV     1   --> A              
     e( 79 - 79) =     85.47037  eV     1   --> A              
     e( 80 - 80) =     85.52660  eV     1   --> A              
     e( 81 - 81) =     86.63102  eV     1   --> A              
     e( 82 - 82) =     86.63245  eV     1   --> A              
     e( 83 - 83) =     86.73532  eV     1   --> A              
     e( 84 - 84) =     88.55497  eV     1   --> A              
     e( 85 - 85) =     88.63285  eV     1   --> A              
     e( 86 - 86) =     88.82599  eV     1   --> A              
     e( 87 - 87) =     89.68301  eV     1   --> A              
     e( 88 - 88) =     89.94259  eV     1   --> A              
     e( 89 - 89) =     90.22222  eV     1   --> A              
     e( 90 - 90) =     90.78845  eV     1   --> A              
     e( 91 - 91) =     90.78934  eV     1   --> A              
     e( 92 - 92) =     91.73792  eV     1   --> A              
     e( 93 - 93) =     92.95695  eV     1   --> A              
     e( 94 - 94) =     93.99166  eV     1   --> A              
     e( 95 - 95) =     94.00265  eV     1   --> A              
     e( 96 - 96) =     95.16783  eV     1   --> A              
     e( 97 - 97) =     95.75385  eV     1   --> A              
     e( 98 - 98) =     96.60556  eV     1   --> A              
     e( 99 - 99) =     96.73985  eV     1   --> A              
     e(100 -100) =     96.74428  eV     1   --> A              

 **************************************************************************

 **************************************************************************

                    xk=(   0.00000,  -0.17229,  -0.10551  )

     Band symmetry, C_1 (1)     point group:

     e(  1 -  1) =    -90.91919  eV     1   --> A              
     e(  2 -  2) =    -88.69976  eV     1   --> A              
     e(  3 -  3) =    -51.22560  eV     1   --> A              
     e(  4 -  4) =    -51.21258  eV     1   --> A              
     e(  5 -  5) =    -51.21056  eV     1   --> A              
     e(  6 -  6) =    -49.05867  eV     1   --> A              
     e(  7 -  7) =    -49.04564  eV     1   --> A              
     e(  8 -  8) =    -49.04294  eV     1   --> A              
     e(  9 -  9) =     -5.36864  eV     1   --> A              
     e( 10 - 10) =     -3.96387  eV     1   --> A              
     e( 11 - 11) =      1.80988  eV     1   --> A              
     e( 12 - 12) =      4.75453  eV     1   --> A              
     e( 13 - 13) =      4.85094  eV     1   --> A              
     e( 14 - 14) =      7.03634  eV     1   --> A              
     e( 15 - 15) =      7.31411  eV     1   --> A              
     e( 16 - 16) =      7.51630  eV     1   --> A              
     e( 17 - 17) =      8.05054  eV     1   --> A              
     e( 18 - 18) =      8.47038  eV     1   --> A              
     e( 19 - 19) =      8.92785  eV     1   --> A              
     e( 20 - 20) =      9.12515  eV     1   --> A              
     e( 21 - 21) =      9.25219  eV     1   --> A              
     e( 22 - 22) =      9.64043  eV     1   --> A              
     e( 23 - 23) =     10.49948  eV     1   --> A              
     e( 24 - 24) =     10.61753  eV     1   --> A              
     e( 25 - 25) =     16.79738  eV     1   --> A              
     e( 26 - 26) =     17.00188  eV     1   --> A              
     e( 27 - 27) =     17.02309  eV     1   --> A              
     e( 28 - 28) =     20.66067  eV     1   --> A              
     e( 29 - 29) =     24.54568  eV     1   --> A              
     e( 30 - 30) =     27.79547  eV     1   --> A              
     e( 31 - 31) =     28.80263  eV     1   --> A              
     e( 32 - 32) =     30.28837  eV     1   --> A              
     e( 33 - 33) =     33.02457  eV     1   --> A              
     e( 34 - 34) =     33.02606  eV     1   --> A              
     e( 35 - 35) =     34.28552  eV     1   --> A              
     e( 36 - 36) =     36.16613  eV     1   --> A              
     e( 37 - 37) =     36.17189  eV     1   --> A              
     e( 38 - 38) =     36.60459  eV     1   --> A              
     e( 39 - 39) =     38.08233  eV     1   --> A              
     e( 40 - 40) =     38.50016  eV     1   --> A              
     e( 41 - 41) =     40.30162  eV     1   --> A              
     e( 42 - 42) =     41.95812  eV     1   --> A              
     e( 43 - 43) =     41.96756  eV     1   --> A              
     e( 44 - 44) =     42.31572  eV     1   --> A              
     e( 45 - 45) =     43.82596  eV     1   --> A              
     e( 46 - 46) =     44.62271  eV     1   --> A              
     e( 47 - 47) =     49.44095  eV     1   --> A              
     e( 48 - 48) =     50.81971  eV     1   --> A              
     e( 49 - 49) =     50.82154  eV     1   --> A              
     e( 50 - 50) =     52.73590  eV     1   --> A              
     e( 51 - 51) =     54.43791  eV     1   --> A              
     e( 52 - 52) =     54.45576  eV     1   --> A              
     e( 53 - 53) =     55.51036  eV     1   --> A              
     e( 54 - 54) =     58.38700  eV     1   --> A              
     e( 55 - 55) =     58.40345  eV     1   --> A              
     e( 56 - 56) =     59.73420  eV     1   --> A              
     e( 57 - 57) =     63.35794  eV     1   --> A              
     e( 58 - 58) =     64.66469  eV     1   --> A              
     e( 59 - 59) =     64.66897  eV     1   --> A              
     e( 60 - 60) =     66.05189  eV     1   --> A              
     e( 61 - 61) =     68.27688  eV     1   --> A              
     e( 62 - 62) =     68.86810  eV     1   --> A              
     e( 63 - 63) =     70.20247  eV     1   --> A              
     e( 64 - 64) =     70.96804  eV     1   --> A              
     e( 65 - 65) =     71.08451  eV     1   --> A              
     e( 66 - 66) =     71.08601  eV     1   --> A              
     e( 67 - 67) =     71.41304  eV     1   --> A              
     e( 68 - 68) =     72.79968  eV     1   --> A              
     e( 69 - 69) =     73.20449  eV     1   --> A              
     e( 70 - 70) =     74.33111  eV     1   --> A              
     e( 71 - 71) =     74.44555  eV     1   --> A              
     e( 72 - 72) =     74.78801  eV     1   --> A              
     e( 73 - 73) =     74.79216  eV     1   --> A              
     e( 74 - 74) =     77.39718  eV     1   --> A              
     e( 75 - 75) =     79.38771  eV     1   --> A              
     e( 76 - 76) =     80.50654  eV     1   --> A              
     e( 77 - 77) =     81.21807  eV     1   --> A              
     e( 78 - 78) =     84.46021  eV     1   --> A              
     e( 79 - 79) =     85.50196  eV     1   --> A              
     e( 80 - 80) =     86.02708  eV     1   --> A              
     e( 81 - 81) =     86.11148  eV     1   --> A              
     e( 82 - 82) =     86.17882  eV     1   --> A              
     e( 83 - 83) =     86.33115  eV     1   --> A              
     e( 84 - 84) =     88.25679  eV     1   --> A              
     e( 85 - 85) =     88.31214  eV     1   --> A              
     e( 86 - 86) =     88.55931  eV     1   --> A              
     e( 87 - 87) =     89.44194  eV     1   --> A              
     e( 88 - 88) =     89.68499  eV     1   --> A              
     e( 89 - 89) =     89.68895  eV     1   --> A              
     e( 90 - 90) =     90.41980  eV     1   --> A              
     e( 91 - 91) =     90.42042  eV     1   --> A              
     e( 92 - 92) =     91.45679  eV     1   --> A              
     e( 93 - 93) =     93.25240  eV     1   --> A              
     e( 94 - 94) =     94.02643  eV     1   --> A              
     e( 95 - 95) =     94.03931  eV     1   --> A              
     e( 96 - 96) =     95.52788  eV     1   --> A              
     e( 97 - 97) =     95.79886  eV     1   --> A              
     e( 98 - 98) =     96.41790  eV     1   --> A              
     e( 99 - 99) =     96.42517  eV     1   --> A              
     e(100 -100) =     96.99828  eV     1   --> A              

 **************************************************************************

 **************************************************************************

                    xk=(   0.00000,  -0.19383,  -0.11870  )

     Band symmetry, C_1 (1)     point group:

     e(  1 -  1) =    -90.91926  eV     1   --> A              
     e(  2 -  2) =    -88.70020  eV     1   --> A              
     e(  3 -  3) =    -51.22594  eV     1   --> A              
     e(  4 -  4) =    -51.21343  eV     1   --> A              
     e(  5 -  5) =    -51.21089  eV     1   --> A              
     e(  6 -  6) =    -49.05901  eV     1   --> A              
     e(  7 -  7) =    -49.04662  eV     1   --> A              
     e(  8 -  8) =    -49.04325  eV     1   --> A              
     e(  9 -  9) =     -5.35615  eV     1   --> A              
     e( 10 - 10) =     -3.97569  eV     1   --> A              
     e( 11 - 11) =      1.89100  eV     1   --> A              
     e( 12 - 12) =      4.74053  eV     1   --> A              
     e( 13 - 13) =      4.85987  eV     1   --> A              
     e( 14 - 14) =      6.92016  eV     1   --> A              
     e( 15 - 15) =      7.29235  eV     1   --> A              
     e( 16 - 16) =      7.51124  eV     1   --> A              
     e( 17 - 17) =      7.96892  eV     1   --> A              
     e( 18 - 18) =      8.47336  eV     1   --> A              
     e( 19 - 19) =      8.89623  eV     1   --> A              
     e( 20 - 20) =      9.12292  eV     1   --> A              
     e( 21 - 21) =      9.26807  eV     1   --> A              
     e( 22 - 22) =      9.63141  eV     1   --> A              
     e( 23 - 23) =     10.49127  eV     1   --> A              
     e( 24 - 24) =     10.63085  eV     1   --> A              
     e( 25 - 25) =     16.93594  eV     1   --> A              
     e( 26 - 26) =     16.99260  eV     1   --> A              
     e( 27 - 27) =     17.01424  eV     1   --> A              
     e( 28 - 28) =     20.78909  eV     1   --> A              
     e( 29 - 29) =     24.50924  eV     1   --> A              
     e( 30 - 30) =     27.64540  eV     1   --> A              
     e( 31 - 31) =     28.87340  eV     1   --> A              
     e( 32 - 32) =     29.98352  eV     1   --> A              
     e( 33 - 33) =     32.92048  eV     1   --> A              
     e( 34 - 34) =     32.92239  eV     1   --> A              
     e( 35 - 35) =     34.36047  eV     1   --> A              
     e( 36 - 36) =     36.09571  eV     1   --> A              
     e( 37 - 37) =     36.10072  eV     1   --> A              
     e( 38 - 38) =     36.62538  eV     1   --> A              
     e( 39 - 39) =     38.38707  eV     1   --> A              
     e( 40 - 40) =     38.45745  eV     1   --> A              
     e( 41 - 41) =     40.32387  eV     1   --> A              
     e( 42 - 42) =     42.23626  eV     1   --> A              
     e( 43 - 43) =     42.26140  eV     1   --> A              
     e( 44 - 44) =     42.44004  eV     1   --> A              
     e( 45 - 45) =     43.92088  eV     1   --> A              
     e( 46 - 46) =     44.84494  eV     1   --> A              
     e( 47 - 47) =     49.23967  eV     1   --> A              
     e( 48 - 48) =     50.81142  eV     1   --> A              
     e( 49 - 49) =     50.81325  eV     1   --> A              
     e( 50 - 50) =     53.01646  eV     1   --> A              
     e( 51 - 51) =     54.34660  eV     1   --> A              
     e( 52 - 52) =     54.40673  eV     1   --> A              
     e( 53 - 53) =     55.39029  eV     1   --> A              
     e( 54 - 54) =     58.25397  eV     1   --> A              
     e( 55 - 55) =     58.49430  eV     1   --> A              
     e( 56 - 56) =     59.99293  eV     1   --> A              
     e( 57 - 57) =     62.99586  eV     1   --> A              
     e( 58 - 58) =     64.16227  eV     1   --> A              
     e( 59 - 59) =     64.16633  eV     1   --> A              
     e( 60 - 60) =     65.98658  eV     1   --> A              
     e( 61 - 61) =     68.33498  eV     1   --> A              
     e( 62 - 62) =     69.00166  eV     1   --> A              
     e( 63 - 63) =     69.80908  eV     1   --> A              
     e( 64 - 64) =     70.95273  eV     1   --> A              
     e( 65 - 65) =     71.11822  eV     1   --> A              
     e( 66 - 66) =     71.11895  eV     1   --> A              
     e( 67 - 67) =     71.20471  eV     1   --> A              
     e( 68 - 68) =     72.81637  eV     1   --> A              
     e( 69 - 69) =     73.27527  eV     1   --> A              
     e( 70 - 70) =     74.34136  eV     1   --> A              
     e( 71 - 71) =     74.65756  eV     1   --> A              
     e( 72 - 72) =     75.40489  eV     1   --> A              
     e( 73 - 73) =     75.40792  eV     1   --> A              
     e( 74 - 74) =     77.08979  eV     1   --> A              
     e( 75 - 75) =     79.38294  eV     1   --> A              
     e( 76 - 76) =     80.43530  eV     1   --> A              
     e( 77 - 77) =     81.87515  eV     1   --> A              
     e( 78 - 78) =     83.84632  eV     1   --> A              
     e( 79 - 79) =     85.50869  eV     1   --> A              
     e( 80 - 80) =     85.51235  eV     1   --> A              
     e( 81 - 81) =     85.67957  eV     1   --> A              
     e( 82 - 82) =     85.89524  eV     1   --> A              
     e( 83 - 83) =     86.73787  eV     1   --> A              
     e( 84 - 84) =     87.97540  eV     1   --> A              
     e( 85 - 85) =     88.02163  eV     1   --> A              
     e( 86 - 86) =     88.32386  eV     1   --> A              
     e( 87 - 87) =     89.15218  eV     1   --> A              
     e( 88 - 88) =     89.21692  eV     1   --> A              
     e( 89 - 89) =     89.44442  eV     1   --> A              
     e( 90 - 90) =     90.07102  eV     1   --> A              
     e( 91 - 91) =     90.07156  eV     1   --> A              
     e( 92 - 92) =     91.20494  eV     1   --> A              
     e( 93 - 93) =     93.52794  eV     1   --> A              
     e( 94 - 94) =     94.05965  eV     1   --> A              
     e( 95 - 95) =     94.07704  eV     1   --> A              
     e( 96 - 96) =     95.79094  eV     1   --> A              
     e( 97 - 97) =     95.88123  eV     1   --> A              
     e( 98 - 98) =     96.11846  eV     1   --> A              
     e( 99 - 99) =     96.14734  eV     1   --> A              
     e(100 -100) =     97.36898  eV     1   --> A              

 **************************************************************************

 **************************************************************************

                    xk=(   0.00000,  -0.21537,  -0.13188  )

     Band symmetry, C_1 (1)     point group:

     e(  1 -  1) =    -90.91934  eV     1   --> A              
     e(  2 -  2) =    -88.70063  eV     1   --> A              
     e(  3 -  3) =    -51.22633  eV     1   --> A              
     e(  4 -  4) =    -51.21438  eV     1   --> A              
     e(  5 -  5) =    -51.21124  eV     1   --> A              
     e(  6 -  6) =    -49.05939  eV     1   --> A              
     e(  7 -  7) =    -49.04769  eV     1   --> A              
     e(  8 -  8) =    -49.04360  eV     1   --> A              
     e(  9 -  9) =     -5.34159  eV     1   --> A              
     e( 10 - 10) =     -3.98825  eV     1   --> A              
     e( 11 - 11) =      1.97976  eV     1   --> A              
     e( 12 - 12) =      4.72576  eV     1   --> A              
     e( 13 - 13) =      4.86940  eV     1   --> A              
     e( 14 - 14) =      6.78661  eV     1   --> A              
     e( 15 - 15) =      7.26932  eV     1   --> A              
     e( 16 - 16) =      7.50363  eV     1   --> A              
     e( 17 - 17) =      7.88908  eV     1   --> A              
     e( 18 - 18) =      8.47713  eV     1   --> A              
     e( 19 - 19) =      8.86738  eV     1   --> A              
     e( 20 - 20) =      9.12016  eV     1   --> A              
     e( 21 - 21) =      9.28092  eV     1   --> A              
     e( 22 - 22) =      9.62125  eV     1   --> A              
     e( 23 - 23) =     10.48467  eV     1   --> A              
     e( 24 - 24) =     10.64430  eV     1   --> A              
     e( 25 - 25) =     16.98486  eV     1   --> A              
     e( 26 - 26) =     17.00543  eV     1   --> A              
     e( 27 - 27) =     17.08327  eV     1   --> A              
     e( 28 - 28) =     20.92491  eV     1   --> A              
     e( 29 - 29) =     24.46957  eV     1   --> A              
     e( 30 - 30) =     27.49303  eV     1   --> A              
     e( 31 - 31) =     28.95052  eV     1   --> A              
     e( 32 - 32) =     29.67936  eV     1   --> A              
     e( 33 - 33) =     32.79919  eV     1   --> A              
     e( 34 - 34) =     32.80158  eV     1   --> A              
     e( 35 - 35) =     34.42352  eV     1   --> A              
     e( 36 - 36) =     36.04513  eV     1   --> A              
     e( 37 - 37) =     36.04971  eV     1   --> A              
     e( 38 - 38) =     36.53537  eV     1   --> A              
     e( 39 - 39) =     38.54955  eV     1   --> A              
     e( 40 - 40) =     38.71359  eV     1   --> A              
     e( 41 - 41) =     40.35066  eV     1   --> A              
     e( 42 - 42) =     42.45490  eV     1   --> A              
     e( 43 - 43) =     42.56387  eV     1   --> A              
     e( 44 - 44) =     42.63115  eV     1   --> A              
     e( 45 - 45) =     44.02515  eV     1   --> A              
     e( 46 - 46) =     45.06001  eV     1   --> A              
     e( 47 - 47) =     49.03429  eV     1   --> A              
     e( 48 - 48) =     50.80261  eV     1   --> A              
     e( 49 - 49) =     50.80445  eV     1   --> A              
     e( 50 - 50) =     53.31251  eV     1   --> A              
     e( 51 - 51) =     54.24860  eV     1   --> A              
     e( 52 - 52) =     54.36950  eV     1   --> A              
     e( 53 - 53) =     55.27524  eV     1   --> A              
     e( 54 - 54) =     58.11043  eV     1   --> A              
     e( 55 - 55) =     58.56310  eV     1   --> A              
     e( 56 - 56) =     60.26566  eV     1   --> A              
     e( 57 - 57) =     62.65657  eV     1   --> A              
     e( 58 - 58) =     63.67009  eV     1   --> A              
     e( 59 - 59) =     63.67408  eV     1   --> A              
     e( 60 - 60) =     65.84576  eV     1   --> A              
     e( 61 - 61) =     68.39977  eV     1   --> A              
     e( 62 - 62) =     69.12429  eV     1   --> A              
     e( 63 - 63) =     69.42967  eV     1   --> A              
     e( 64 - 64) =     70.93018  eV     1   --> A              
     e( 65 - 65) =     71.06376  eV     1   --> A              
     e( 66 - 66) =     71.15693  eV     1   --> A              
     e( 67 - 67) =     71.16106  eV     1   --> A              
     e( 68 - 68) =     72.76490  eV     1   --> A              
     e( 69 - 69) =     73.33969  eV     1   --> A              
     e( 70 - 70) =     74.34631  eV     1   --> A              
     e( 71 - 71) =     74.88314  eV     1   --> A              
     e( 72 - 72) =     76.02073  eV     1   --> A              
     e( 73 - 73) =     76.02330  eV     1   --> A              
     e( 74 - 74) =     76.86891  eV     1   --> A              
     e( 75 - 75) =     79.39452  eV     1   --> A              
     e( 76 - 76) =     80.35275  eV     1   --> A              
     e( 77 - 77) =     82.54166  eV     1   --> A              
     e( 78 - 78) =     83.21127  eV     1   --> A              
     e( 79 - 79) =     84.87944  eV     1   --> A              
     e( 80 - 80) =     84.88128  eV     1   --> A              
     e( 81 - 81) =     85.39866  eV     1   --> A              
     e( 82 - 82) =     85.82621  eV     1   --> A              
     e( 83 - 83) =     87.31636  eV     1   --> A              
     e( 84 - 84) =     87.70398  eV     1   --> A              
     e( 85 - 85) =     87.74473  eV     1   --> A              
     e( 86 - 86) =     88.17171  eV     1   --> A              
     e( 87 - 87) =     88.62525  eV     1   --> A              
     e( 88 - 88) =     88.99082  eV     1   --> A              
     e( 89 - 89) =     89.22545  eV     1   --> A              
     e( 90 - 90) =     89.74429  eV     1   --> A              
     e( 91 - 91) =     89.74505  eV     1   --> A              
     e( 92 - 92) =     90.99531  eV     1   --> A              
     e( 93 - 93) =     93.77344  eV     1   --> A              
     e( 94 - 94) =     94.09098  eV     1   --> A              
     e( 95 - 95) =     94.11909  eV     1   --> A              
     e( 96 - 96) =     95.73046  eV     1   --> A              
     e( 97 - 97) =     95.83307  eV     1   --> A              
     e( 98 - 98) =     95.85025  eV     1   --> A              
     e( 99 - 99) =     96.30839  eV     1   --> A              
     e(100 -100) =     97.72106  eV     1   --> A              

 **************************************************************************

 **************************************************************************

                    xk=(   0.00000,  -0.23690,  -0.14507  )

     Band symmetry, C_1 (1)     point group:

     e(  1 -  1) =    -90.91943  eV     1   --> A              
     e(  2 -  2) =    -88.70107  eV     1   --> A              
     e(  3 -  3) =    -51.22675  eV     1   --> A              
     e(  4 -  4) =    -51.21540  eV     1   --> A              
     e(  5 -  5) =    -51.21161  eV     1   --> A              
     e(  6 -  6) =    -49.05981  eV     1   --> A              
     e(  7 -  7) =    -49.04884  eV     1   --> A              
     e(  8 -  8) =    -49.04398  eV     1   --> A              
     e(  9 -  9) =     -5.32477  eV     1   --> A              
     e( 10 - 10) =     -4.00139  eV     1   --> A              
     e( 11 - 11) =      2.07555  eV     1   --> A              
     e( 12 - 12) =      4.71054  eV     1   --> A              
     e( 13 - 13) =      4.87938  eV     1   --> A              
     e( 14 - 14) =      6.63668  eV     1   --> A              
     e( 15 - 15) =      7.24545  eV     1   --> A              
     e( 16 - 16) =      7.49083  eV     1   --> A              
     e( 17 - 17) =      7.81442  eV     1   --> A              
     e( 18 - 18) =      8.48169  eV     1   --> A              
     e( 19 - 19) =      8.84156  eV     1   --> A              
     e( 20 - 20) =      9.11685  eV     1   --> A              
     e( 21 - 21) =      9.29029  eV     1   --> A              
     e( 22 - 22) =      9.61006  eV     1   --> A              
     e( 23 - 23) =     10.48022  eV     1   --> A              
     e( 24 - 24) =     10.65756  eV     1   --> A              
     e( 25 - 25) =     16.97914  eV     1   --> A              
     e( 26 - 26) =     16.99697  eV     1   --> A              
     e( 27 - 27) =     17.23759  eV     1   --> A              
     e( 28 - 28) =     21.06595  eV     1   --> A              
     e( 29 - 29) =     24.42734  eV     1   --> A              
     e( 30 - 30) =     27.34094  eV     1   --> A              
     e( 31 - 31) =     29.03339  eV     1   --> A              
     e( 32 - 32) =     29.37723  eV     1   --> A              
     e( 33 - 33) =     32.66152  eV     1   --> A              
     e( 34 - 34) =     32.66443  eV     1   --> A              
     e( 35 - 35) =     34.47708  eV     1   --> A              
     e( 36 - 36) =     36.01559  eV     1   --> A              
     e( 37 - 37) =     36.02024  eV     1   --> A              
     e( 38 - 38) =     36.35419  eV     1   --> A              
     e( 39 - 39) =     38.75732  eV     1   --> A              
     e( 40 - 40) =     39.05694  eV     1   --> A              
     e( 41 - 41) =     40.38277  eV     1   --> A              
     e( 42 - 42) =     42.58710  eV     1   --> A              
     e( 43 - 43) =     42.87124  eV     1   --> A              
     e( 44 - 44) =     42.91458  eV     1   --> A              
     e( 45 - 45) =     44.13851  eV     1   --> A              
     e( 46 - 46) =     45.26315  eV     1   --> A              
     e( 47 - 47) =     48.82543  eV     1   --> A              
     e( 48 - 48) =     50.79367  eV     1   --> A              
     e( 49 - 49) =     50.79553  eV     1   --> A              
     e( 50 - 50) =     53.62394  eV     1   --> A              
     e( 51 - 51) =     54.14517  eV     1   --> A              
     e( 52 - 52) =     54.34697  eV     1   --> A              
     e( 53 - 53) =     55.16466  eV     1   --> A              
     e( 54 - 54) =     57.95627  eV     1   --> A              
     e( 55 - 55) =     58.61624  eV     1   --> A              
     e( 56 - 56) =     60.52145  eV     1   --> A              
[...]

 **************************************************************************

                    xk=(   0.00781,  -0.02591,  -0.04231  )

     Band symmetry, C_1 (1)     point group:

     e(  1 -  1) =    -90.91889  eV     1   --> A              
     e(  2 -  2) =    -88.69789  eV     1   --> A              
     e(  3 -  3) =    -51.22439  eV     1   --> A              
     e(  4 -  4) =    -51.21006  eV     1   --> A              
     e(  5 -  5) =    -51.20871  eV     1   --> A              
     e(  6 -  6) =    -49.05746  eV     1   --> A              
     e(  7 -  7) =    -49.04207  eV     1   --> A              
     e(  8 -  8) =    -49.04170  eV     1   --> A              
     e(  9 -  9) =     -5.40833  eV     1   --> A              
     e( 10 - 10) =     -3.91553  eV     1   --> A              
     e( 11 - 11) =      1.50830  eV     1   --> A              
     e( 12 - 12) =      4.80884  eV     1   --> A              
     e( 13 - 13) =      4.81612  eV     1   --> A              
     e( 14 - 14) =      7.38959  eV     1   --> A              
     e( 15 - 15) =      7.39707  eV     1   --> A              
     e( 16 - 16) =      7.54294  eV     1   --> A              
     e( 17 - 17) =      8.43210  eV     1   --> A              
     e( 18 - 18) =      8.46985  eV     1   --> A              
     e( 19 - 19) =      9.10316  eV     1   --> A              
     e( 20 - 20) =      9.12950  eV     1   --> A              
     e( 21 - 21) =      9.14742  eV     1   --> A              
     e( 22 - 22) =      9.67118  eV     1   --> A              
     e( 23 - 23) =     10.54902  eV     1   --> A              
     e( 24 - 24) =     10.55684  eV     1   --> A              
     e( 25 - 25) =     16.24528  eV     1   --> A              
     e( 26 - 26) =     17.05783  eV     1   --> A              
     e( 27 - 27) =     17.06495  eV     1   --> A              
     e( 28 - 28) =     20.15245  eV     1   --> A              
     e( 29 - 29) =     24.67740  eV     1   --> A              
     e( 30 - 30) =     28.45884  eV     1   --> A              
     e( 31 - 31) =     28.53787  eV     1   --> A              
     e( 32 - 32) =     31.97450  eV     1   --> A              
     e( 33 - 33) =     33.28759  eV     1   --> A              
     e( 34 - 34) =     33.35212  eV     1   --> A              
     e( 35 - 35) =     33.54274  eV     1   --> A              
     e( 36 - 36) =     35.79747  eV     1   --> A              
     e( 37 - 37) =     36.67105  eV     1   --> A              
     e( 38 - 38) =     36.82637  eV     1   --> A              
     e( 39 - 39) =     36.91725  eV     1   --> A              
     e( 40 - 40) =     39.96715  eV     1   --> A              
     e( 41 - 41) =     40.17522  eV     1   --> A              
     e( 42 - 42) =     40.61857  eV     1   --> A              
     e( 43 - 43) =     40.70291  eV     1   --> A              
     e( 44 - 44) =     41.50283  eV     1   --> A              
     e( 45 - 45) =     43.48719  eV     1   --> A              
     e( 46 - 46) =     43.51877  eV     1   --> A              
     e( 47 - 47) =     50.56922  eV     1   --> A              
     e( 48 - 48) =     50.84358  eV     1   --> A              
     e( 49 - 49) =     50.85485  eV     1   --> A              
     e( 50 - 50) =     51.34520  eV     1   --> A              
     e( 51 - 51) =     54.75867  eV     1   --> A              
     e( 52 - 52) =     54.81499  eV     1   --> A              
     e( 53 - 53) =     56.64866  eV     1   --> A              
     e( 54 - 54) =     57.03815  eV     1   --> A              
     e( 55 - 55) =     58.94527  eV     1   --> A              
     e( 56 - 56) =     58.97772  eV     1   --> A              
     e( 57 - 57) =     65.42116  eV     1   --> A              
     e( 58 - 58) =     65.69712  eV     1   --> A              
     e( 59 - 59) =     67.52029  eV     1   --> A              
     e( 60 - 60) =     67.82383  eV     1   --> A              
     e( 61 - 61) =     67.83884  eV     1   --> A              
     e( 62 - 62) =     67.96150  eV     1   --> A              
     e( 63 - 63) =     70.96089  eV     1   --> A              
     e( 64 - 64) =     70.98647  eV     1   --> A              
     e( 65 - 65) =     71.05640  eV     1   --> A              
     e( 66 - 66) =     71.22412  eV     1   --> A              
     e( 67 - 67) =     71.50133  eV     1   --> A              
     e( 68 - 68) =     72.35280  eV     1   --> A              
     e( 69 - 69) =     72.36881  eV     1   --> A              
     e( 70 - 70) =     72.77403  eV     1   --> A              
     e( 71 - 71) =     73.22224  eV     1   --> A              
     e( 72 - 72) =     73.67846  eV     1   --> A              
     e( 73 - 73) =     74.25258  eV     1   --> A              
     e( 74 - 74) =     77.58798  eV     1   --> A              
     e( 75 - 75) =     79.89944  eV     1   --> A              
     e( 76 - 76) =     80.01822  eV     1   --> A              
     e( 77 - 77) =     80.86027  eV     1   --> A              
     e( 78 - 78) =     82.98507  eV     1   --> A              
     e( 79 - 79) =     83.13243  eV     1   --> A              
     e( 80 - 80) =     87.86486  eV     1   --> A              
     e( 81 - 81) =     87.88643  eV     1   --> A              
     e( 82 - 82) =     87.93444  eV     1   --> A              
     e( 83 - 83) =     88.46838  eV     1   --> A              
     e( 84 - 84) =     89.71758  eV     1   --> A              
     e( 85 - 85) =     90.43385  eV     1   --> A              
     e( 86 - 86) =     90.61608  eV     1   --> A              
     e( 87 - 87) =     90.79566  eV     1   --> A              
     e( 88 - 88) =     90.84610  eV     1   --> A              
     e( 89 - 89) =     92.26610  eV     1   --> A              
     e( 90 - 90) =     92.67359  eV     1   --> A              
     e( 91 - 91) =     92.86036  eV     1   --> A              
     e( 92 - 92) =     92.99866  eV     1   --> A              
     e( 93 - 93) =     93.00049  eV     1   --> A              
     e( 94 - 94) =     93.75585  eV     1   --> A              
     e( 95 - 95) =     93.84464  eV     1   --> A              
     e( 96 - 96) =     93.85684  eV     1   --> A              
     e( 97 - 97) =     94.32806  eV     1   --> A              
     e( 98 - 98) =     95.02330  eV     1   --> A              
     e( 99 - 99) =     95.15792  eV     1   --> A              
     e(100 -100) =     95.46681  eV     1   --> A              

 **************************************************************************

 **************************************************************************

                    xk=(   0.00391,  -0.01296,  -0.02116  )

     Band symmetry, C_1 (1)     point group:

     e(  1 -  1) =    -90.91889  eV     1   --> A              
     e(  2 -  2) =    -88.69780  eV     1   --> A              
     e(  3 -  3) =    -51.22432  eV     1   --> A              
     e(  4 -  4) =    -51.20990  eV     1   --> A              
     e(  5 -  5) =    -51.20862  eV     1   --> A              
     e(  6 -  6) =    -49.05739  eV     1   --> A              
     e(  7 -  7) =    -49.04187  eV     1   --> A              
     e(  8 -  8) =    -49.04163  eV     1   --> A              
     e(  9 -  9) =     -5.41010  eV     1   --> A              
     e( 10 - 10) =     -3.91425  eV     1   --> A              
     e( 11 - 11) =      1.49437  eV     1   --> A              
     e( 12 - 12) =      4.81252  eV     1   --> A              
     e( 13 - 13) =      4.81422  eV     1   --> A              
     e( 14 - 14) =      7.40172  eV     1   --> A              
     e( 15 - 15) =      7.40440  eV     1   --> A              
     e( 16 - 16) =      7.54459  eV     1   --> A              
     e( 17 - 17) =      8.45658  eV     1   --> A              
     e( 18 - 18) =      8.46779  eV     1   --> A              
     e( 19 - 19) =      9.12370  eV     1   --> A              
     e( 20 - 20) =      9.12854  eV     1   --> A              
     e( 21 - 21) =      9.13299  eV     1   --> A              
     e( 22 - 22) =      9.67259  eV     1   --> A              
     e( 23 - 23) =     10.55113  eV     1   --> A              
     e( 24 - 24) =     10.55568  eV     1   --> A              
     e( 25 - 25) =     16.21499  eV     1   --> A              
     e( 26 - 26) =     17.06351  eV     1   --> A              
     e( 27 - 27) =     17.06600  eV     1   --> A              
     e( 28 - 28) =     20.12144  eV     1   --> A              
     e( 29 - 29) =     24.68544  eV     1   --> A              
     e( 30 - 30) =     28.50499  eV     1   --> A              
     e( 31 - 31) =     28.52505  eV     1   --> A              
     e( 32 - 32) =     32.14270  eV     1   --> A              
     e( 33 - 33) =     33.33256  eV     1   --> A              
     e( 34 - 34) =     33.34869  eV     1   --> A              
     e( 35 - 35) =     33.40384  eV     1   --> A              
     e( 36 - 36) =     35.72924  eV     1   --> A              
     e( 37 - 37) =     36.78233  eV     1   --> A              
     e( 38 - 38) =     36.82594  eV     1   --> A              
     e( 39 - 39) =     36.84781  eV     1   --> A              
     e( 40 - 40) =     40.13160  eV     1   --> A              
     e( 41 - 41) =     40.18723  eV     1   --> A              
     e( 42 - 42) =     40.58365  eV     1   --> A              
     e( 43 - 43) =     40.59996  eV     1   --> A              
     e( 44 - 44) =     41.34287  eV     1   --> A              
     e( 45 - 45) =     43.46035  eV     1   --> A              
     e( 46 - 46) =     43.46823  eV     1   --> A              
     e( 47 - 47) =     50.73966  eV     1   --> A              
     e( 48 - 48) =     50.85024  eV     1   --> A              
     e( 49 - 49) =     50.85399  eV     1   --> A              
     e( 50 - 50) =     51.15932  eV     1   --> A              
     e( 51 - 51) =     54.79918  eV     1   --> A              
     e( 52 - 52) =     54.81371  eV     1   --> A              
     e( 53 - 53) =     56.70779  eV     1   --> A              
     e( 54 - 54) =     56.94395  eV     1   --> A              
     e( 55 - 55) =     58.95453  eV     1   --> A              
     e( 56 - 56) =     58.96261  eV     1   --> A              
     e( 57 - 57) =     65.62132  eV     1   --> A              
     e( 58 - 58) =     65.69700  eV     1   --> A              
     e( 59 - 59) =     67.66207  eV     1   --> A              
     e( 60 - 60) =     67.90402  eV     1   --> A              
     e( 61 - 61) =     67.99536  eV     1   --> A              
     e( 62 - 62) =     68.03278  eV     1   --> A              
     e( 63 - 63) =     70.94731  eV     1   --> A              
     e( 64 - 64) =     70.96218  eV     1   --> A              
     e( 65 - 65) =     70.98438  eV     1   --> A              
     e( 66 - 66) =     71.04177  eV     1   --> A              
     e( 67 - 67) =     71.10275  eV     1   --> A              
     e( 68 - 68) =     72.35487  eV     1   --> A              
     e( 69 - 69) =     72.48233  eV     1   --> A              
     e( 70 - 70) =     72.73682  eV     1   --> A              
     e( 71 - 71) =     73.50931  eV     1   --> A              
     e( 72 - 72) =     73.63497  eV     1   --> A              
     e( 73 - 73) =     74.24713  eV     1   --> A              
     e( 74 - 74) =     77.24001  eV     1   --> A              
     e( 75 - 75) =     80.13900  eV     1   --> A              
     e( 76 - 76) =     80.18186  eV     1   --> A              
     e( 77 - 77) =     80.93296  eV     1   --> A              
     e( 78 - 78) =     82.74120  eV     1   --> A              
     e( 79 - 79) =     82.78834  eV     1   --> A              
     e( 80 - 80) =     87.94808  eV     1   --> A              
     e( 81 - 81) =     87.95357  eV     1   --> A              
     e( 82 - 82) =     87.96531  eV     1   --> A              
     e( 83 - 83) =     88.99740  eV     1   --> A              
     e( 84 - 84) =     89.87180  eV     1   --> A              
     e( 85 - 85) =     90.16477  eV     1   --> A              
     e( 86 - 86) =     90.87845  eV     1   --> A              
     e( 87 - 87) =     90.92925  eV     1   --> A              
     e( 88 - 88) =     90.95851  eV     1   --> A              
     e( 89 - 89) =     92.61919  eV     1   --> A              
     e( 90 - 90) =     93.11411  eV     1   --> A              
     e( 91 - 91) =     93.15909  eV     1   --> A              
     e( 92 - 92) =     93.18607  eV     1   --> A              
     e( 93 - 93) =     93.23119  eV     1   --> A              
     e( 94 - 94) =     93.66113  eV     1   --> A              
     e( 95 - 95) =     93.70501  eV     1   --> A              
     e( 96 - 96) =     93.73369  eV     1   --> A              
     e( 97 - 97) =     93.87287  eV     1   --> A              
     e( 98 - 98) =     95.00472  eV     1   --> A              
     e( 99 - 99) =     95.06650  eV     1   --> A              
     e(100 -100) =     95.12759  eV     1   --> A              

 **************************************************************************

 **************************************************************************

                    xk=(   0.00000,   0.00000,   0.00000  )

     point group C_i (-1)   
     there are  2 classes
     the character table:

       E     i    
A_g    1.00  1.00
A_u    1.00 -1.00

     the symmetry operations in each class and the name of the first element:

     E        1
                                                                 
     i        2
                                                                 

     Band symmetry, C_i (-1)    point group:

     e(  1 -  1) =    -90.91889  eV     1   --> A_g            
     e(  2 -  2) =    -88.69777  eV     1   --> A_g            
     e(  3 -  3) =    -51.22430  eV     1   --> A_u            
     e(  4 -  4) =    -51.20985  eV     1   --> A_u            
     e(  5 -  5) =    -51.20858  eV     1   --> A_u            
     e(  6 -  6) =    -49.05736  eV     1   --> A_u            
     e(  7 -  7) =    -49.04180  eV     1   --> A_u            
     e(  8 -  8) =    -49.04160  eV     1   --> A_u            
     e(  9 -  9) =     -5.41069  eV     1   --> A_g            
     e( 10 - 10) =     -3.91381  eV     1   --> A_u            
     e( 11 - 11) =      1.48972  eV     1   --> A_g            
     e( 12 - 12) =      4.81335  eV     1   --> A_g            
     e( 13 - 13) =      4.81398  eV     1   --> A_g            
     e( 14 - 14) =      7.40540  eV     1   --> A_g            
     e( 15 - 15) =      7.40709  eV     1   --> A_g            
     e( 16 - 16) =      7.54522  eV     1   --> A_g            
     e( 17 - 17) =      8.46411  eV     1   --> A_g            
     e( 18 - 18) =      8.46795  eV     1   --> A_g            
     e( 19 - 19) =      9.12537  eV     1   --> A_u            
     e( 20 - 21) =      9.13074  eV     2   -->   2 A_u            
     e( 22 - 22) =      9.67305  eV     1   --> A_g            
     e( 23 - 23) =     10.55182  eV     1   --> A_g            
     e( 24 - 24) =     10.55528  eV     1   --> A_g            
     e( 25 - 25) =     16.20481  eV     1   --> A_g            
     e( 26 - 26) =     17.06534  eV     1   --> A_g            
     e( 27 - 27) =     17.06648  eV     1   --> A_g            
     e( 28 - 28) =     20.11102  eV     1   --> A_u            
     e( 29 - 29) =     24.68812  eV     1   --> A_g            
     e( 30 - 30) =     28.52055  eV     1   --> A_u            
     e( 31 - 31) =     28.52083  eV     1   --> A_u            
     e( 32 - 32) =     32.20867  eV     1   --> A_u            
     e( 33 - 33) =     33.34734  eV     1   --> A_g            
     e( 34 - 34) =     33.34766  eV     1   --> A_g            
     e( 35 - 35) =     33.34784  eV     1   --> A_g            
     e( 36 - 36) =     35.70616  eV     1   --> A_g            
     e( 37 - 37) =     36.81821  eV     1   --> A_u            
     e( 38 - 38) =     36.82665  eV     1   --> A_u            
     e( 39 - 39) =     36.82691  eV     1   --> A_u            
     e( 40 - 40) =     40.19018  eV     1   --> A_g            
     e( 41 - 41) =     40.19080  eV     1   --> A_g            
     e( 42 - 42) =     40.57303  eV     1   --> A_g            
     e( 43 - 43) =     40.57366  eV     1   --> A_g            
     e( 44 - 44) =     41.27539  eV     1   --> A_u            
     e( 45 - 46) =     43.45128  eV     2   -->   2 A_u            
     e( 47 - 48) =     50.85204  eV     2   -->   2 A_u            
     e( 49 - 49) =     50.85414  eV     1   --> A_u            
     e( 50 - 50) =     51.04169  eV     1   --> A_g            
     e( 51 - 51) =     54.81292  eV     1   --> A_g            
     e( 52 - 52) =     54.81332  eV     1   --> A_g            
     e( 53 - 53) =     56.74343  eV     1   --> A_u            
     e( 54 - 54) =     56.89638  eV     1   --> A_g            
     e( 55 - 55) =     58.95751  eV     1   --> A_u            
     e( 56 - 56) =     58.95765  eV     1   --> A_u            
     e( 57 - 58) =     65.69699  eV     2   -->   2 A_g            
     e( 59 - 59) =     67.59449  eV     1   --> A_u            
     e( 60 - 60) =     68.05507  eV     1   --> A_u            
     e( 61 - 61) =     68.05780  eV     1   --> A_u            
     e( 62 - 62) =     68.05790  eV     1   --> A_u            
     e( 63 - 64) =     70.91527  eV     2   -->   2 A_g            
     e( 65 - 65) =     70.97969  eV     1   --> A_g            
     e( 66 - 67) =     70.98373  eV     2   -->   2 A_g            
     e( 68 - 68) =     72.35347  eV     1   --> A_g            
     e( 69 - 69) =     72.52255  eV     1   --> A_u            
     e( 70 - 70) =     72.72302  eV     1   --> A_u            
     e( 71 - 72) =     73.62036  eV     2   -->   2 A_u            
     e( 73 - 73) =     74.24529  eV     1   --> A_g            
     e( 74 - 74) =     77.11019  eV     1   --> A_g            
     e( 75 - 76) =     80.22935  eV     2   -->   2 A_g            
     e( 77 - 77) =     80.98858  eV     1   --> A_g            
     e( 78 - 79) =     82.64912  eV     2   -->   2 A_u            
     e( 80 - 80) =     87.97497  eV     1   --> A_u            
     e( 81 - 82) =     87.97555  eV     2   -->   2 A_u            
     e( 83 - 83) =     89.30669  eV     1   --> A_u            
     e( 84 - 84) =     89.92034  eV     1   --> A_g            
     e( 85 - 85) =     89.92048  eV     1   --> A_g            
     e( 86 - 87) =     90.96812  eV     2   -->   2 A_u            
     e( 88 - 88) =     91.03194  eV     1   --> A_u            
     e( 89 - 89) =     92.84153  eV     1   --> A_g            
     e( 90 - 90) =     93.15326  eV     1   --> A_u            
     e( 91 - 91) =     93.36712  eV     1   --> A_u            
     e( 92 - 92) =     93.36730  eV     1   --> A_u            
     e( 93 - 93) =     93.37652  eV     1   --> A_u            
     e( 94 - 94) =     93.62319  eV     1   --> A_u            
     e( 95 - 95) =     93.62337  eV     1   --> A_u            
     e( 96 - 97) =     93.63442  eV     2   -->   2 A_g            
     e( 98 - 99) =     94.99015  eV     2   -->   2 A_g            
     e(100 -100) =     94.99045  eV     1   --> A_g            

 **************************************************************************
 
     BANDS        :    41.04s CPU        51.63s WALL

 
   This run was terminated on:  22:28: 9   3Jan2020            

=------------------------------------------------------------------------------=
   JOB DONE.
=------------------------------------------------------------------------------=
IPL WARN> ipl_option_omp: wrong omp option 
