
     Program BANDS v.6.1 (svn rev. 13369) starts on  3Jan2020 at 17:21: 6 

     This program is part of the open-source Quantum ESPRESSO suite
     for quantum simulation of materials; please cite
         "P. Giannozzi et al., J. Phys.:Condens. Matter 21 395502 (2009);
          URL http://www.quantum-espresso.org", 
     in publications or presentations arising from this work. More details at
     http://www.quantum-espresso.org/quote

     Parallel version (MPI), running on    40 processors
     R & G space division:  proc/nbgrp/npool/nimage =      40

     Reading data from directory:
     ./outdir/NiO.save

   Info: using nr1, nr2, nr3 values from input

   Info: using nr1, nr2, nr3 values from input

     IMPORTANT: XC functional enforced from input :
     Exchange-correlation      =  SLA  PW   PBX  PBC ( 1  4  3  4 0 0)
     Any further DFT definition will be discarded
     Please, verify this is what you really want

               file Ni.pbe-spn-kjpaw_psl.1.0.0.UPF: wavefunction(s)  3P 3D renormalized
               file Ni.pbe-spn-kjpaw_psl.1.0.0.UPF: wavefunction(s)  3P 3D renormalized
               file O.pbe-n-kjpaw_psl.1.0.0.UPF: wavefunction(s)  2S 2P renormalized
 
     Parallelization info
     --------------------
     sticks:   dense  smooth     PW     G-vecs:    dense   smooth      PW
     Min          82      82     22                 2333     2333     341
     Max          83      83     23                 2335     2335     344
     Sum        3287    3287    911                93351    93351   13705
 
     Generating pointlists ...
     new r_m :   0.1684 (alat units)  1.6253 (a.u.) for type    1
     new r_m :   0.1684 (alat units)  1.6253 (a.u.) for type    2
     new r_m :   0.1684 (alat units)  1.6253 (a.u.) for type    3
     high-symmetry point:  0.0000 0.0000 0.0000   x coordinate   0.0000
     high-symmetry point:  0.0000-0.9045-0.5539   x coordinate   1.0607
     high-symmetry point: -0.1875-0.6219-1.0155   x coordinate   1.6335
     high-symmetry point: -0.3438-0.1036-1.0155   x coordinate   2.1747
     high-symmetry point:  0.0000 0.0000 0.0000   x coordinate   3.2519
     high-symmetry point: -0.5000-0.1508-0.0923   x coordinate   3.7822
     high-symmetry point: -0.1875-0.9045-0.5539   x coordinate   4.7197
     high-symmetry point: -0.1875-0.6219-1.0155   x coordinate   5.2609
     high-symmetry point: -0.5000-0.1508-0.0923   x coordinate   6.3435
     high-symmetry point: -0.3438-0.1036-1.0155   x coordinate   7.2810
     high-symmetry point: -0.1875-0.9045-0.5539   x coordinate   8.2185
     high-symmetry point:  0.0000-0.9045-0.5539   x coordinate   8.4060
     high-symmetry point:  0.0000 0.0000 0.0000   x coordinate   9.4666
     high-symmetry point:  0.0000 0.0000-1.0155   x coordinate  10.4821
     high-symmetry point:  0.0000-0.6219-1.0155   x coordinate  11.1040
     high-symmetry point:  0.1875-0.6219-1.0155   x coordinate  11.2915
     high-symmetry point:  0.0000 0.0000 0.0000   x coordinate  12.4970

     Plottable bands (eV) written to file NiO.bands.dat.gnu
     Bands written to file NiO.bands.dat

 **************************************************************************

                    xk=(   0.00000,   0.00000,   0.00000  )

     point group C_i (-1)   
     there are  2 classes
     the character table:

       E     i    
A_g    1.00  1.00
A_u    1.00 -1.00

     the symmetry operations in each class and the name of the first element:

     E        1
                                                                 
     i        2
                                                                 

     Band symmetry, C_i (-1)    point group:

     e(  1 -  1) =    -90.51225  eV     1   --> A_g            
     e(  2 -  2) =    -88.41593  eV     1   --> A_g            
     e(  3 -  3) =    -50.85479  eV     1   --> A_u            
     e(  4 -  4) =    -50.83975  eV     1   --> A_u            
     e(  5 -  5) =    -50.83921  eV     1   --> A_u            
     e(  6 -  6) =    -48.80877  eV     1   --> A_u            
     e(  7 -  7) =    -48.79358  eV     1   --> A_u            
     e(  8 -  8) =    -48.79343  eV     1   --> A_u            
     e(  9 -  9) =     -5.58643  eV     1   --> A_g            
     e( 10 - 10) =     -4.12145  eV     1   --> A_u            
     e( 11 - 11) =      3.34856  eV     1   --> A_g            
     e( 12 - 12) =      6.47061  eV     1   --> A_g            
     e( 13 - 13) =      6.47086  eV     1   --> A_g            
     e( 14 - 14) =      9.18230  eV     1   --> A_g            
     e( 15 - 15) =      9.18311  eV     1   --> A_g            
     e( 16 - 16) =      9.30085  eV     1   --> A_g            
     e( 17 - 17) =     10.06298  eV     1   --> A_u            
     e( 18 - 19) =     10.06533  eV     2   -->   2 A_u            
     e( 20 - 20) =     10.10478  eV     1   --> A_g            
     e( 21 - 21) =     10.10702  eV     1   --> A_g            
     e( 22 - 22) =     11.16042  eV     1   --> A_g            
     e( 23 - 23) =     11.49098  eV     1   --> A_g            
     e( 24 - 24) =     11.49282  eV     1   --> A_g            
     e( 25 - 25) =     16.15856  eV     1   --> A_g            
     e( 26 - 26) =     16.35820  eV     1   --> A_g            
     e( 27 - 27) =     16.35911  eV     1   --> A_g            
     e( 28 - 28) =     20.09518  eV     1   --> A_u            
     e( 29 - 29) =     24.66165  eV     1   --> A_g            
     e( 30 - 30) =     28.55282  eV     1   --> A_u            
     e( 31 - 31) =     28.55295  eV     1   --> A_u            
     e( 32 - 32) =     32.20886  eV     1   --> A_u            
     e( 33 - 33) =     33.39298  eV     1   --> A_g            
     e( 34 - 35) =     33.39311  eV     2   -->   2 A_g            
     e( 36 - 36) =     35.76902  eV     1   --> A_g            
     e( 37 - 37) =     36.88553  eV     1   --> A_u            
     e( 38 - 38) =     36.89265  eV     1   --> A_u            
     e( 39 - 39) =     36.89278  eV     1   --> A_u            
     e( 40 - 40) =     40.21638  eV     1   --> A_g            
     e( 41 - 41) =     40.21661  eV     1   --> A_g            
     e( 42 - 42) =     40.58971  eV     1   --> A_g            
     e( 43 - 43) =     40.59005  eV     1   --> A_g            
     e( 44 - 44) =     41.24799  eV     1   --> A_u            
     e( 45 - 46) =     43.43248  eV     2   -->   2 A_u            
     e( 47 - 48) =     50.77113  eV     2   -->   2 A_u            
     e( 49 - 49) =     50.77424  eV     1   --> A_u            
     e( 50 - 50) =     51.11059  eV     1   --> A_g            
     e( 51 - 51) =     54.82951  eV     1   --> A_g            
     e( 52 - 52) =     54.82971  eV     1   --> A_g            
     e( 53 - 53) =     56.72158  eV     1   --> A_u            
     e( 54 - 54) =     56.89346  eV     1   --> A_g            
     e( 55 - 56) =     58.97575  eV     2   -->   2 A_u            
     e( 57 - 58) =     65.67921  eV     2   -->   2 A_g            
     e( 59 - 59) =     67.65736  eV     1   --> A_u            
     e( 60 - 60) =     68.08413  eV     1   --> A_u            
     e( 61 - 62) =     68.08576  eV     2   -->   2 A_u            
     e( 63 - 64) =     70.89265  eV     2   -->   2 A_g            
     e( 65 - 65) =     70.96378  eV     1   --> A_g            
     e( 66 - 67) =     70.96624  eV     2   -->   2 A_g            
     e( 68 - 68) =     72.43486  eV     1   --> A_g            
     e( 69 - 69) =     72.58481  eV     1   --> A_u            
     e( 70 - 70) =     72.67114  eV     1   --> A_u            
     e( 71 - 72) =     73.56790  eV     2   -->   2 A_u            
     e( 73 - 73) =     74.18375  eV     1   --> A_g            
     e( 74 - 74) =     77.07721  eV     1   --> A_g            
     e( 75 - 76) =     80.27663  eV     2   -->   2 A_g            
     e( 77 - 77) =     80.92086  eV     1   --> A_g            
     e( 78 - 79) =     82.65756  eV     2   -->   2 A_u            
     e( 80 - 80) =     87.98311  eV     1   --> A_u            
     e( 81 - 82) =     87.98382  eV     2   -->   2 A_u            
     e( 83 - 83) =     89.36172  eV     1   --> A_u            
     e( 84 - 85) =     89.93171  eV     2   -->   2 A_g            
     e( 86 - 87) =     90.97931  eV     2   -->   2 A_u            
     e( 88 - 88) =     91.03247  eV     1   --> A_u            
     e( 89 - 89) =     92.81038  eV     1   --> A_g            
     e( 90 - 90) =     93.24444  eV     1   --> A_u            
     e( 91 - 92) =     93.36924  eV     2   -->   2 A_u            
     e( 93 - 93) =     93.37810  eV     1   --> A_u            
     e( 94 - 95) =     93.60349  eV     2   -->   2 A_u            
     e( 96 - 97) =     93.63422  eV     2   -->   2 A_g            
     e( 98 - 99) =     94.96499  eV     2   -->   2 A_g            
     e(100 -100) =     94.96558  eV     1   --> A_g            

 **************************************************************************

 **************************************************************************

                    xk=(   0.00000,  -0.02154,  -0.01319  )

     point group C_1 (1)    
     there are  1 classes
     the character table:

       E    
A      1.00

     the symmetry operations in each class and the name of the first element:

     E        1
                                                                 

     Band symmetry, C_1 (1)     point group:

     e(  1 -  1) =    -90.51226  eV     1   --> A              
     e(  2 -  2) =    -88.41595  eV     1   --> A              
     e(  3 -  3) =    -50.85480  eV     1   --> A              
     e(  4 -  4) =    -50.83978  eV     1   --> A              
     e(  5 -  5) =    -50.83925  eV     1   --> A              
     e(  6 -  6) =    -48.80879  eV     1   --> A              
     e(  7 -  7) =    -48.79361  eV     1   --> A              
     e(  8 -  8) =    -48.79348  eV     1   --> A              
     e(  9 -  9) =     -5.58536  eV     1   --> A              
     e( 10 - 10) =     -4.12186  eV     1   --> A              
     e( 11 - 11) =      3.35290  eV     1   --> A              
     e( 12 - 12) =      6.46954  eV     1   --> A              
     e( 13 - 13) =      6.47152  eV     1   --> A              
     e( 14 - 14) =      9.17586  eV     1   --> A              
     e( 15 - 15) =      9.17906  eV     1   --> A              
     e( 16 - 16) =      9.29819  eV     1   --> A              
     e( 17 - 17) =     10.00675  eV     1   --> A              
     e( 18 - 18) =     10.04822  eV     1   --> A              
     e( 19 - 19) =     10.06428  eV     1   --> A              
     e( 20 - 20) =     10.12336  eV     1   --> A              
     e( 21 - 21) =     10.15835  eV     1   --> A              
     e( 22 - 22) =     11.15985  eV     1   --> A              
     e( 23 - 23) =     11.49175  eV     1   --> A              
     e( 24 - 24) =     11.49518  eV     1   --> A              
     e( 25 - 25) =     16.16918  eV     1   --> A              
     e( 26 - 26) =     16.35640  eV     1   --> A              
     e( 27 - 27) =     16.35732  eV     1   --> A              
     e( 28 - 28) =     20.10476  eV     1   --> A              
     e( 29 - 29) =     24.65952  eV     1   --> A              
     e( 30 - 30) =     28.53897  eV     1   --> A              
     e( 31 - 31) =     28.55741  eV     1   --> A              
     e( 32 - 32) =     32.14498  eV     1   --> A              
     e( 33 - 34) =     33.38907  eV     2   -->   2 A              
     e( 35 - 35) =     33.44074  eV     1   --> A              
     e( 36 - 36) =     35.78976  eV     1   --> A              
     e( 37 - 37) =     36.86782  eV     1   --> A              
     e( 38 - 38) =     36.87419  eV     1   --> A              
     e( 39 - 39) =     36.91246  eV     1   --> A              
     e( 40 - 40) =     40.14660  eV     1   --> A              
     e( 41 - 41) =     40.22113  eV     1   --> A              
     e( 42 - 42) =     40.60679  eV     1   --> A              
     e( 43 - 43) =     40.61570  eV     1   --> A              
     e( 44 - 44) =     41.31182  eV     1   --> A              
     e( 45 - 45) =     43.43863  eV     1   --> A              
     e( 46 - 46) =     43.45496  eV     1   --> A              
     e( 47 - 47) =     50.68582  eV     1   --> A              
     e( 48 - 48) =     50.77073  eV     1   --> A              
     e( 49 - 49) =     50.77346  eV     1   --> A              
     e( 50 - 50) =     51.20052  eV     1   --> A              
     e( 51 - 51) =     54.82151  eV     1   --> A              
     e( 52 - 52) =     54.82350  eV     1   --> A              
     e( 53 - 53) =     56.58354  eV     1   --> A              
     e( 54 - 54) =     57.04285  eV     1   --> A              
     e( 55 - 55) =     58.96521  eV     1   --> A              
     e( 56 - 56) =     58.98327  eV     1   --> A              
     e( 57 - 57) =     65.60755  eV     1   --> A              
     e( 58 - 58) =     65.69178  eV     1   --> A              
     e( 59 - 59) =     67.71113  eV     1   --> A              
     e( 60 - 60) =     67.96038  eV     1   --> A              
     e( 61 - 61) =     67.96183  eV     1   --> A              
     e( 62 - 62) =     68.08903  eV     1   --> A              
     e( 63 - 63) =     70.92594  eV     1   --> A              
     e( 64 - 64) =     70.92722  eV     1   --> A              
     e( 65 - 65) =     70.96630  eV     1   --> A              
     e( 66 - 66) =     71.06406  eV     1   --> A              
     e( 67 - 67) =     71.06496  eV     1   --> A              
     e( 68 - 68) =     72.44108  eV     1   --> A              
     e( 69 - 69) =     72.54583  eV     1   --> A              
     e( 70 - 70) =     72.68592  eV     1   --> A              
     e( 71 - 71) =     73.46737  eV     1   --> A              
     e( 72 - 72) =     73.57988  eV     1   --> A              
     e( 73 - 73) =     74.18562  eV     1   --> A              
     e( 74 - 74) =     77.19805  eV     1   --> A              
     e( 75 - 75) =     80.19102  eV     1   --> A              
     e( 76 - 76) =     80.23510  eV     1   --> A              
     e( 77 - 77) =     80.87175  eV     1   --> A              
     e( 78 - 78) =     82.74750  eV     1   --> A              
     e( 79 - 79) =     82.78186  eV     1   --> A              
     e( 80 - 80) =     87.96199  eV     1   --> A              
     e( 81 - 81) =     87.96382  eV     1   --> A              
     e( 82 - 82) =     87.96451  eV     1   --> A              
     e( 83 - 83) =     89.05904  eV     1   --> A              
     e( 84 - 84) =     89.89439  eV     1   --> A              
     e( 85 - 85) =     90.16782  eV     1   --> A              
     e( 86 - 86) =     90.89377  eV     1   --> A              
     e( 87 - 87) =     90.93007  eV     1   --> A              
     e( 88 - 88) =     90.96049  eV     1   --> A              
     e( 89 - 89) =     92.60489  eV     1   --> A              
     e( 90 - 90) =     93.18036  eV     1   --> A              
     e( 91 - 91) =     93.18114  eV     1   --> A              
     e( 92 - 92) =     93.20448  eV     1   --> A              
     e( 93 - 93) =     93.21579  eV     1   --> A              
     e( 94 - 94) =     93.63354  eV     1   --> A              
     e( 95 - 95) =     93.70979  eV     1   --> A              
     e( 96 - 96) =     93.71754  eV     1   --> A              
     e( 97 - 97) =     93.83792  eV     1   --> A              
     e( 98 - 98) =     94.99885  eV     1   --> A              
     e( 99 - 99) =     95.07502  eV     1   --> A              
     e(100 -100) =     95.07543  eV     1   --> A              

 **************************************************************************

 **************************************************************************

                    xk=(   0.00000,  -0.04307,  -0.02638  )

     Band symmetry, C_1 (1)     point group:

     e(  1 -  1) =    -90.51228  eV     1   --> A              
     e(  2 -  2) =    -88.41600  eV     1   --> A              
     e(  3 -  3) =    -50.85484  eV     1   --> A              
     e(  4 -  4) =    -50.83985  eV     1   --> A              
     e(  5 -  5) =    -50.83936  eV     1   --> A              
     e(  6 -  6) =    -48.80882  eV     1   --> A              
     e(  7 -  7) =    -48.79372  eV     1   --> A              
     e(  8 -  8) =    -48.79357  eV     1   --> A              
     e(  9 -  9) =     -5.58214  eV     1   --> A              
     e( 10 - 10) =     -4.12309  eV     1   --> A              
     e( 11 - 11) =      3.36589  eV     1   --> A              
     e( 12 - 12) =      6.46618  eV     1   --> A              
     e( 13 - 13) =      6.47368  eV     1   --> A              
     e( 14 - 14) =      9.15358  eV     1   --> A              
     e( 15 - 15) =      9.16869  eV     1   --> A              
     e( 16 - 16) =      9.29117  eV     1   --> A              
     e( 17 - 17) =      9.92932  eV     1   --> A              
     e( 18 - 18) =     10.02125  eV     1   --> A              
     e( 19 - 19) =     10.06176  eV     1   --> A              
     e( 20 - 20) =     10.15328  eV     1   --> A              
     e( 21 - 21) =     10.22229  eV     1   --> A              
     e( 22 - 22) =     11.15813  eV     1   --> A              
     e( 23 - 23) =     11.49359  eV     1   --> A              
     e( 24 - 24) =     11.50265  eV     1   --> A              
     e( 25 - 25) =     16.20079  eV     1   --> A              
     e( 26 - 26) =     16.34992  eV     1   --> A              
     e( 27 - 27) =     16.35322  eV     1   --> A              
     e( 28 - 28) =     20.13330  eV     1   --> A              
     e( 29 - 29) =     24.65315  eV     1   --> A              
     e( 30 - 30) =     28.49774  eV     1   --> A              
     e( 31 - 31) =     28.57103  eV     1   --> A              
     e( 32 - 32) =     31.97866  eV     1   --> A              
     e( 33 - 34) =     33.37699  eV     2   -->   2 A              
     e( 35 - 35) =     33.55835  eV     1   --> A              
     e( 36 - 36) =     35.85094  eV     1   --> A              
     e( 37 - 37) =     36.81524  eV     1   --> A              
     e( 38 - 38) =     36.82121  eV     1   --> A              
     e( 39 - 39) =     36.97355  eV     1   --> A              
     e( 40 - 40) =     39.96081  eV     1   --> A              
     e( 41 - 41) =     40.23202  eV     1   --> A              
     e( 42 - 42) =     40.67872  eV     1   --> A              
     e( 43 - 43) =     40.69404  eV     1   --> A              
     e( 44 - 44) =     41.45668  eV     1   --> A              
     e( 45 - 45) =     43.45692  eV     1   --> A              
     e( 46 - 46) =     43.52187  eV     1   --> A              
     e( 47 - 47) =     50.52534  eV     1   --> A              
     e( 48 - 48) =     50.76940  eV     1   --> A              
     e( 49 - 49) =     50.77213  eV     1   --> A              
     e( 50 - 50) =     51.37391  eV     1   --> A              
     e( 51 - 51) =     54.79757  eV     1   --> A              
     e( 52 - 52) =     54.80535  eV     1   --> A              
     e( 53 - 53) =     56.39747  eV     1   --> A              
     e( 54 - 54) =     57.26171  eV     1   --> A              
     e( 55 - 55) =     58.93388  eV     1   --> A              
     e( 56 - 56) =     59.00645  eV     1   --> A              
     e( 57 - 57) =     65.41400  eV     1   --> A              
     e( 58 - 58) =     65.72826  eV     1   --> A              
     e( 59 - 59) =     67.64043  eV     1   --> A              
     e( 60 - 60) =     67.64155  eV     1   --> A              
     e( 61 - 61) =     67.85129  eV     1   --> A              
     e( 62 - 62) =     68.09936  eV     1   --> A              
     e( 63 - 63) =     70.93913  eV     1   --> A              
     e( 64 - 64) =     70.94071  eV     1   --> A              
     e( 65 - 65) =     70.96712  eV     1   --> A              
     e( 66 - 66) =     71.39872  eV     1   --> A              
     e( 67 - 67) =     71.39925  eV     1   --> A              
     e( 68 - 68) =     72.42558  eV     1   --> A              
     e( 69 - 69) =     72.46225  eV     1   --> A              
     e( 70 - 70) =     72.72661  eV     1   --> A              
     e( 71 - 71) =     73.20816  eV     1   --> A              
     e( 72 - 72) =     73.61628  eV     1   --> A              
     e( 73 - 73) =     74.19114  eV     1   --> A              
     e( 74 - 74) =     77.52282  eV     1   --> A              
     e( 75 - 75) =     79.93557  eV     1   --> A              
     e( 76 - 76) =     80.13006  eV     1   --> A              
     e( 77 - 77) =     80.79092  eV     1   --> A              
     e( 78 - 78) =     82.99727  eV     1   --> A              
     e( 79 - 79) =     83.08670  eV     1   --> A              
     e( 80 - 80) =     87.89495  eV     1   --> A              
     e( 81 - 81) =     87.90365  eV     1   --> A              
     e( 82 - 82) =     87.90479  eV     1   --> A              
     e( 83 - 83) =     88.53931  eV     1   --> A              
     e( 84 - 84) =     89.78735  eV     1   --> A              
     e( 85 - 85) =     90.41809  eV     1   --> A              
     e( 86 - 86) =     90.65510  eV     1   --> A              
     e( 87 - 87) =     90.77981  eV     1   --> A              
     e( 88 - 88) =     90.82714  eV     1   --> A              
     e( 89 - 89) =     92.28264  eV     1   --> A              
     e( 90 - 90) =     92.81821  eV     1   --> A              
     e( 91 - 91) =     92.81984  eV     1   --> A              
     e( 92 - 92) =     92.83722  eV     1   --> A              
     e( 93 - 93) =     93.08870  eV     1   --> A              
     e( 94 - 94) =     93.72606  eV     1   --> A              
     e( 95 - 95) =     93.78742  eV     1   --> A              
     e( 96 - 96) =     93.81994  eV     1   --> A              
     e( 97 - 97) =     94.27956  eV     1   --> A              
     e( 98 - 98) =     95.09264  eV     1   --> A              
     e( 99 - 99) =     95.33202  eV     1   --> A              
     e(100 -100) =     95.33231  eV     1   --> A              

 **************************************************************************

 **************************************************************************

                    xk=(   0.00000,  -0.06461,  -0.03957  )

     Band symmetry, C_1 (1)     point group:

     e(  1 -  1) =    -90.51231  eV     1   --> A              
     e(  2 -  2) =    -88.41609  eV     1   --> A              
     e(  3 -  3) =    -50.85489  eV     1   --> A              
     e(  4 -  4) =    -50.84000  eV     1   --> A              
     e(  5 -  5) =    -50.83953  eV     1   --> A              
     e(  6 -  6) =    -48.80887  eV     1   --> A              
     e(  7 -  7) =    -48.79396  eV     1   --> A              
     e(  8 -  8) =    -48.79367  eV     1   --> A              
     e(  9 -  9) =     -5.57676  eV     1   --> A              
     e( 10 - 10) =     -4.12513  eV     1   --> A              
     e( 11 - 11) =      3.38745  eV     1   --> A              
     e( 12 - 12) =      6.46062  eV     1   --> A              
     e( 13 - 13) =      6.47726  eV     1   --> A              
     e( 14 - 14) =      9.11342  eV     1   --> A              
     e( 15 - 15) =      9.15158  eV     1   --> A              
     e( 16 - 16) =      9.28166  eV     1   --> A              
     e( 17 - 17) =      9.84781  eV     1   --> A              
     e( 18 - 18) =      9.99508  eV     1   --> A              
     e( 19 - 19) =     10.05820  eV     1   --> A              
     e( 20 - 20) =     10.18449  eV     1   --> A              
     e( 21 - 21) =     10.28244  eV     1   --> A              
     e( 22 - 22) =     11.15523  eV     1   --> A              
     e( 23 - 23) =     11.49654  eV     1   --> A              
     e( 24 - 24) =     11.51498  eV     1   --> A              
     e( 25 - 25) =     16.25264  eV     1   --> A              
     e( 26 - 26) =     16.33930  eV     1   --> A              
     e( 27 - 27) =     16.34676  eV     1   --> A              
     e( 28 - 28) =     20.18021  eV     1   --> A              
     e( 29 - 29) =     24.64256  eV     1   --> A              
     e( 30 - 30) =     28.43104  eV     1   --> A              
     e( 31 - 31) =     28.59362  eV     1   --> A              
     e( 32 - 32) =     31.75153  eV     1   --> A              
     e( 33 - 34) =     33.35604  eV     2   -->   2 A              
     e( 35 - 35) =     33.70449  eV     1   --> A              
     e( 36 - 36) =     35.94946  eV     1   --> A              
     e( 37 - 37) =     36.73494  eV     1   --> A              
     e( 38 - 38) =     36.74041  eV     1   --> A              
     e( 39 - 39) =     37.07534  eV     1   --> A              
     e( 40 - 40) =     39.71215  eV     1   --> A              
     e( 41 - 41) =     40.24452  eV     1   --> A              
     e( 42 - 42) =     40.80988  eV     1   --> A              
     e( 43 - 43) =     40.82365  eV     1   --> A              
     e( 44 - 44) =     41.62230  eV     1   --> A              
     e( 45 - 45) =     43.48722  eV     1   --> A              
     e( 46 - 46) =     43.63128  eV     1   --> A              
     e( 47 - 47) =     50.34875  eV     1   --> A              
     e( 48 - 48) =     50.76718  eV     1   --> A              
     e( 49 - 49) =     50.76991  eV     1   --> A              
     e( 50 - 50) =     51.57212  eV     1   --> A              
     e( 51 - 51) =     54.75937  eV     1   --> A              
     e( 52 - 52) =     54.77533  eV     1   --> A              
     e( 53 - 53) =     56.22008  eV     1   --> A              
     e( 54 - 54) =     57.48942  eV     1   --> A              
     e( 55 - 55) =     58.88277  eV     1   --> A              
     e( 56 - 56) =     59.04795  eV     1   --> A              
     e( 57 - 57) =     65.13946  eV     1   --> A              
     e( 58 - 58) =     65.78480  eV     1   --> A              
     e( 59 - 59) =     67.21104  eV     1   --> A              
     e( 60 - 60) =     67.21194  eV     1   --> A              
     e( 61 - 61) =     68.03680  eV     1   --> A              
     e( 62 - 62) =     68.11658  eV     1   --> A              
     e( 63 - 63) =     70.95083  eV     1   --> A              
     e( 64 - 64) =     70.95223  eV     1   --> A              
     e( 65 - 65) =     70.96812  eV     1   --> A              
     e( 66 - 66) =     71.86191  eV     1   --> A              
     e( 67 - 67) =     71.86223  eV     1   --> A              
     e( 68 - 68) =     72.21459  eV     1   --> A              
     e( 69 - 69) =     72.50327  eV     1   --> A              
     e( 70 - 70) =     72.78518  eV     1   --> A              
     e( 71 - 71) =     72.87674  eV     1   --> A              
     e( 72 - 72) =     73.67852  eV     1   --> A              
     e( 73 - 73) =     74.20004  eV     1   --> A              
     e( 74 - 74) =     77.97896  eV     1   --> A              
     e( 75 - 75) =     79.55744  eV     1   --> A              
     e( 76 - 76) =     80.00092  eV     1   --> A              
     e( 77 - 77) =     80.73055  eV     1   --> A              
     e( 78 - 78) =     83.36680  eV     1   --> A              
     e( 79 - 79) =     83.47218  eV     1   --> A              
     e( 80 - 80) =     87.77521  eV     1   --> A              
     e( 81 - 81) =     87.79523  eV     1   --> A              
     e( 82 - 82) =     87.79897  eV     1   --> A              
     e( 83 - 83) =     87.96375  eV     1   --> A              
     e( 84 - 84) =     89.62256  eV     1   --> A              
     e( 85 - 85) =     90.23821  eV     1   --> A              
     e( 86 - 86) =     90.30644  eV     1   --> A              
     e( 87 - 87) =     90.63957  eV     1   --> A              
     e( 88 - 88) =     90.80318  eV     1   --> A              
     e( 89 - 89) =     92.08175  eV     1   --> A              
     e( 90 - 90) =     92.35866  eV     1   --> A              
     e( 91 - 91) =     92.40986  eV     1   --> A              
     e( 92 - 92) =     92.41220  eV     1   --> A              
     e( 93 - 93) =     92.90753  eV     1   --> A              
     e( 94 - 94) =     93.81802  eV     1   --> A              
     e( 95 - 95) =     93.84365  eV     1   --> A              
     e( 96 - 96) =     93.97232  eV     1   --> A              
     e( 97 - 97) =     94.75774  eV     1   --> A              
     e( 98 - 98) =     95.22902  eV     1   --> A              
     e( 99 - 99) =     95.65723  eV     1   --> A              
     e(100 -100) =     95.65873  eV     1   --> A              

 **************************************************************************

 **************************************************************************

                    xk=(   0.00000,  -0.08615,  -0.05275  )

     Band symmetry, C_1 (1)     point group:

     e(  1 -  1) =    -90.51235  eV     1   --> A              
     e(  2 -  2) =    -88.41621  eV     1   --> A              
     e(  3 -  3) =    -50.85496  eV     1   --> A              
     e(  4 -  4) =    -50.84024  eV     1   --> A              
     e(  5 -  5) =    -50.83971  eV     1   --> A              
     e(  6 -  6) =    -48.80895  eV     1   --> A              
     e(  7 -  7) =    -48.79432  eV     1   --> A              
     e(  8 -  8) =    -48.79379  eV     1   --> A              
     e(  9 -  9) =     -5.56918  eV     1   --> A              
     e( 10 - 10) =     -4.12792  eV     1   --> A              
     e( 11 - 11) =      3.41746  eV     1   --> A              
     e( 12 - 12) =      6.45293  eV     1   --> A              
     e( 13 - 13) =      6.48222  eV     1   --> A              
     e( 14 - 14) =      9.05343  eV     1   --> A              
     e( 15 - 15) =      9.12790  eV     1   --> A              
     e( 16 - 16) =      9.27054  eV     1   --> A              
     e( 17 - 17) =      9.76461  eV     1   --> A              
     e( 18 - 18) =      9.97154  eV     1   --> A              
     e( 19 - 19) =     10.05432  eV     1   --> A              
     e( 20 - 20) =     10.21527  eV     1   --> A              
     e( 21 - 21) =     10.33806  eV     1   --> A              
     e( 22 - 22) =     11.15110  eV     1   --> A              
     e( 23 - 23) =     11.50067  eV     1   --> A              
     e( 24 - 24) =     11.53173  eV     1   --> A              
     e( 25 - 25) =     16.32343  eV     1   --> A              
     e( 26 - 26) =     16.32540  eV     1   --> A              
     e( 27 - 27) =     16.33798  eV     1   --> A              
     e( 28 - 28) =     20.24456  eV     1   --> A              
     e( 29 - 29) =     24.62778  eV     1   --> A              
     e( 30 - 30) =     28.34156  eV     1   --> A              
     e( 31 - 31) =     28.62498  eV     1   --> A              
     e( 32 - 32) =     31.49066  eV     1   --> A              
     e( 33 - 33) =     33.32503  eV     1   --> A              
     e( 34 - 34) =     33.32519  eV     1   --> A              
     e( 35 - 35) =     33.85284  eV     1   --> A              
     e( 36 - 36) =     36.07986  eV     1   --> A              
     e( 37 - 37) =     36.63597  eV     1   --> A              
     e( 38 - 38) =     36.64077  eV     1   --> A              
     e( 39 - 39) =     37.21716  eV     1   --> A              
     e( 40 - 40) =     39.43796  eV     1   --> A              
     e( 41 - 41) =     40.25656  eV     1   --> A              
     e( 42 - 42) =     40.98854  eV     1   --> A              
     e( 43 - 43) =     40.99889  eV     1   --> A              
     e( 44 - 44) =     41.78154  eV     1   --> A              
     e( 45 - 45) =     43.52927  eV     1   --> A              
     e( 46 - 46) =     43.77899  eV     1   --> A              
     e( 47 - 47) =     50.16625  eV     1   --> A              
     e( 48 - 48) =     50.76408  eV     1   --> A              
     e( 49 - 49) =     50.76680  eV     1   --> A              
     e( 50 - 50) =     51.78512  eV     1   --> A              
     e( 51 - 51) =     54.70940  eV     1   --> A              
     e( 52 - 52) =     54.73378  eV     1   --> A              
     e( 53 - 53) =     56.05505  eV     1   --> A              
     e( 54 - 54) =     57.71525  eV     1   --> A              
     e( 55 - 55) =     58.81337  eV     1   --> A              
     e( 56 - 56) =     59.11260  eV     1   --> A              
     e( 57 - 57) =     64.81654  eV     1   --> A              
     e( 58 - 58) =     65.85468  eV     1   --> A              
     e( 59 - 59) =     66.72907  eV     1   --> A              
     e( 60 - 60) =     66.72928  eV     1   --> A              
     e( 61 - 61) =     68.14067  eV     1   --> A              
     e( 62 - 62) =     68.23625  eV     1   --> A              
     e( 63 - 63) =     70.96578  eV     1   --> A              
     e( 64 - 64) =     70.96680  eV     1   --> A              
     e( 65 - 65) =     70.96879  eV     1   --> A              
     e( 66 - 66) =     71.89565  eV     1   --> A              
     e( 67 - 67) =     72.38606  eV     1   --> A              
     e( 68 - 68) =     72.39827  eV     1   --> A              
     e( 69 - 69) =     72.54686  eV     1   --> A              
     e( 70 - 70) =     72.57273  eV     1   --> A              
     e( 71 - 71) =     72.85379  eV     1   --> A              
     e( 72 - 72) =     73.76822  eV     1   --> A              
     e( 73 - 73) =     74.21182  eV     1   --> A              
     e( 74 - 74) =     78.50405  eV     1   --> A              
     e( 75 - 75) =     79.12090  eV     1   --> A              
     e( 76 - 76) =     79.88509  eV     1   --> A              
     e( 77 - 77) =     80.68317  eV     1   --> A              
     e( 78 - 78) =     83.82162  eV     1   --> A              
     e( 79 - 79) =     83.88025  eV     1   --> A              
     e( 80 - 80) =     87.33282  eV     1   --> A              
     e( 81 - 81) =     87.60992  eV     1   --> A              
     e( 82 - 82) =     87.63633  eV     1   --> A              
     e( 83 - 83) =     87.63908  eV     1   --> A              
     e( 84 - 84) =     89.41245  eV     1   --> A              
     e( 85 - 85) =     89.84200  eV     1   --> A              
     e( 86 - 86) =     89.89917  eV     1   --> A              
     e( 87 - 87) =     90.42518  eV     1   --> A              
     e( 88 - 88) =     90.72192  eV     1   --> A              
     e( 89 - 89) =     91.84028  eV     1   --> A              
     e( 90 - 90) =     91.99259  eV     1   --> A              
     e( 91 - 91) =     91.99328  eV     1   --> A              
     e( 92 - 92) =     92.13101  eV     1   --> A              
     e( 93 - 93) =     92.67464  eV     1   --> A              
     e( 94 - 94) =     93.87518  eV     1   --> A              
     e( 95 - 95) =     93.88905  eV     1   --> A              
     e( 96 - 96) =     94.20596  eV     1   --> A              
     e( 97 - 97) =     95.21920  eV     1   --> A              
     e( 98 - 98) =     95.39994  eV     1   --> A              
     e( 99 - 99) =     96.02770  eV     1   --> A              
     e(100 -100) =     96.03038  eV     1   --> A              

 **************************************************************************

 **************************************************************************

                    xk=(   0.00000,  -0.10768,  -0.06594  )

     Band symmetry, C_1 (1)     point group:

     e(  1 -  1) =    -90.51240  eV     1   --> A              
     e(  2 -  2) =    -88.41635  eV     1   --> A              
     e(  3 -  3) =    -50.85506  eV     1   --> A              
     e(  4 -  4) =    -50.84061  eV     1   --> A              
     e(  5 -  5) =    -50.83990  eV     1   --> A              
     e(  6 -  6) =    -48.80904  eV     1   --> A              
     e(  7 -  7) =    -48.79478  eV     1   --> A              
     e(  8 -  8) =    -48.79393  eV     1   --> A              
     e(  9 -  9) =     -5.55938  eV     1   --> A              
     e( 10 - 10) =     -4.13143  eV     1   --> A              
     e( 11 - 11) =      3.45575  eV     1   --> A              
     e( 12 - 12) =      6.44323  eV     1   --> A              
     e( 13 - 13) =      6.48850  eV     1   --> A              
     e( 14 - 14) =      8.97298  eV     1   --> A              
     e( 15 - 15) =      9.09801  eV     1   --> A              
     e( 16 - 16) =      9.25695  eV     1   --> A              
     e( 17 - 17) =      9.68226  eV     1   --> A              
     e( 18 - 18) =      9.95136  eV     1   --> A              
     e( 19 - 19) =     10.05084  eV     1   --> A              
     e( 20 - 20) =     10.24496  eV     1   --> A              
     e( 21 - 21) =     10.38906  eV     1   --> A              
     e( 22 - 22) =     11.14571  eV     1   --> A              
     e( 23 - 23) =     11.50604  eV     1   --> A              
     e( 24 - 24) =     11.55236  eV     1   --> A              
     e( 25 - 25) =     16.30871  eV     1   --> A              
     e( 26 - 26) =     16.32711  eV     1   --> A              
     e( 27 - 27) =     16.41198  eV     1   --> A              
     e( 28 - 28) =     20.32512  eV     1   --> A              
     e( 29 - 29) =     24.60889  eV     1   --> A              
     e( 30 - 30) =     28.23263  eV     1   --> A              
     e( 31 - 31) =     28.66485  eV     1   --> A              
     e( 32 - 32) =     31.21041  eV     1   --> A              
     e( 33 - 33) =     33.28243  eV     1   --> A              
     e( 34 - 34) =     33.28273  eV     1   --> A              
     e( 35 - 35) =     33.99070  eV     1   --> A              
     e( 36 - 36) =     36.23344  eV     1   --> A              
     e( 37 - 37) =     36.52803  eV     1   --> A              
     e( 38 - 38) =     36.53175  eV     1   --> A              
     e( 39 - 39) =     37.39751  eV     1   --> A              
     e( 40 - 40) =     39.15990  eV     1   --> A              
     e( 41 - 41) =     40.26843  eV     1   --> A              
     e( 42 - 42) =     41.20417  eV     1   --> A              
     e( 43 - 43) =     41.21166  eV     1   --> A              
     e( 44 - 44) =     41.92629  eV     1   --> A              
     e( 45 - 45) =     43.58274  eV     1   --> A              
     e( 46 - 46) =     43.95829  eV     1   --> A              
     e( 47 - 47) =     49.97965  eV     1   --> A              
     e( 48 - 48) =     50.76008  eV     1   --> A              
     e( 49 - 49) =     50.76280  eV     1   --> A              
     e( 50 - 50) =     52.01137  eV     1   --> A              
     e( 51 - 51) =     54.65108  eV     1   --> A              
     e( 52 - 52) =     54.68118  eV     1   --> A              
     e( 53 - 53) =     55.90223  eV     1   --> A              
     e( 54 - 54) =     57.92892  eV     1   --> A              
     e( 55 - 55) =     58.72744  eV     1   --> A              
     e( 56 - 56) =     59.20775  eV     1   --> A              
     e( 57 - 57) =     64.46572  eV     1   --> A              
     e( 58 - 58) =     65.92589  eV     1   --> A              
     e( 59 - 59) =     66.22273  eV     1   --> A              
     e( 60 - 60) =     66.22624  eV     1   --> A              
     e( 61 - 61) =     68.17164  eV     1   --> A              
     e( 62 - 62) =     68.43120  eV     1   --> A              
     e( 63 - 63) =     70.96843  eV     1   --> A              
     e( 64 - 64) =     70.98451  eV     1   --> A              
     e( 65 - 65) =     70.98488  eV     1   --> A              
     e( 66 - 66) =     71.50385  eV     1   --> A              
     e( 67 - 67) =     72.23666  eV     1   --> A              
     e( 68 - 68) =     72.63242  eV     1   --> A              
     e( 69 - 69) =     72.92229  eV     1   --> A              
     e( 70 - 70) =     72.97048  eV     1   --> A              
     e( 71 - 71) =     72.97991  eV     1   --> A              
     e( 72 - 72) =     73.88627  eV     1   --> A              
     e( 73 - 73) =     74.22578  eV     1   --> A              
     e( 74 - 74) =     78.66657  eV     1   --> A              
     e( 75 - 75) =     79.03085  eV     1   --> A              
     e( 76 - 76) =     79.83405  eV     1   --> A              
     e( 77 - 77) =     80.63795  eV     1   --> A              
     e( 78 - 78) =     84.27765  eV     1   --> A              
     e( 79 - 79) =     84.33853  eV     1   --> A              
     e( 80 - 80) =     86.69758  eV     1   --> A              
     e( 81 - 81) =     87.37438  eV     1   --> A              
     e( 82 - 82) =     87.40052  eV     1   --> A              
     e( 83 - 83) =     87.40168  eV     1   --> A              
     e( 84 - 84) =     89.16333  eV     1   --> A              
     e( 85 - 85) =     89.41091  eV     1   --> A              
     e( 86 - 86) =     89.48679  eV     1   --> A              
     e( 87 - 87) =     90.19231  eV     1   --> A              
     e( 88 - 88) =     90.48571  eV     1   --> A              
     e( 89 - 89) =     91.30593  eV     1   --> A              
     e( 90 - 90) =     91.58103  eV     1   --> A              
     e( 91 - 91) =     91.58241  eV     1   --> A              
     e( 92 - 92) =     92.35538  eV     1   --> A              
     e( 93 - 93) =     92.41064  eV     1   --> A              
     e( 94 - 94) =     93.91909  eV     1   --> A              
     e( 95 - 95) =     93.92912  eV     1   --> A              
     e( 96 - 96) =     94.49132  eV     1   --> A              
     e( 97 - 97) =     95.49211  eV     1   --> A              
     e( 98 - 98) =     95.74064  eV     1   --> A              
     e( 99 - 99) =     96.42920  eV     1   --> A              
     e(100 -100) =     96.43290  eV     1   --> A              

 **************************************************************************

 **************************************************************************

                    xk=(   0.00000,  -0.12922,  -0.07913  )

     Band symmetry, C_1 (1)     point group:

     e(  1 -  1) =    -90.51246  eV     1   --> A              
     e(  2 -  2) =    -88.41652  eV     1   --> A              
     e(  3 -  3) =    -50.85517  eV     1   --> A              
     e(  4 -  4) =    -50.84109  eV     1   --> A              
     e(  5 -  5) =    -50.84008  eV     1   --> A              
     e(  6 -  6) =    -48.80916  eV     1   --> A              
     e(  7 -  7) =    -48.79534  eV     1   --> A              
     e(  8 -  8) =    -48.79410  eV     1   --> A              
     e(  9 -  9) =     -5.54730  eV     1   --> A              
     e( 10 - 10) =     -4.13561  eV     1   --> A              
     e( 11 - 11) =      3.50209  eV     1   --> A              
     e( 12 - 12) =      6.43164  eV     1   --> A              
     e( 13 - 13) =      6.49604  eV     1   --> A              
     e( 14 - 14) =      8.87246  eV     1   --> A              
     e( 15 - 15) =      9.06245  eV     1   --> A              
     e( 16 - 16) =      9.23855  eV     1   --> A              
     e( 17 - 17) =      9.60405  eV     1   --> A              
     e( 18 - 18) =      9.93486  eV     1   --> A              
     e( 19 - 19) =     10.04834  eV     1   --> A              
     e( 20 - 20) =     10.27325  eV     1   --> A              
     e( 21 - 21) =     10.43542  eV     1   --> A              
     e( 22 - 22) =     11.13905  eV     1   --> A              
     e( 23 - 23) =     11.51267  eV     1   --> A              
     e( 24 - 24) =     11.57624  eV     1   --> A              
     e( 25 - 25) =     16.29042  eV     1   --> A              
     e( 26 - 26) =     16.31444  eV     1   --> A              
     e( 27 - 27) =     16.51624  eV     1   --> A              
     e( 28 - 28) =     20.42042  eV     1   --> A              
     e( 29 - 29) =     24.58597  eV     1   --> A              
     e( 30 - 30) =     28.10786  eV     1   --> A              
     e( 31 - 31) =     28.71290  eV     1   --> A              
     e( 32 - 32) =     30.91864  eV     1   --> A              
     e( 33 - 33) =     33.22655  eV     1   --> A              
     e( 34 - 34) =     33.22705  eV     1   --> A              
     e( 35 - 35) =     34.11286  eV     1   --> A              
     e( 36 - 36) =     36.38751  eV     1   --> A              
     e( 37 - 37) =     36.42213  eV     1   --> A              
     e( 38 - 38) =     36.42925  eV     1   --> A              
     e( 39 - 39) =     37.61392  eV     1   --> A              
     e( 40 - 40) =     38.89622  eV     1   --> A              
     e( 41 - 41) =     40.28117  eV     1   --> A              
     e( 42 - 42) =     41.44819  eV     1   --> A              
     e( 43 - 43) =     41.45397  eV     1   --> A              
     e( 44 - 44) =     42.05678  eV     1   --> A              
     e( 45 - 45) =     43.64722  eV     1   --> A              
     e( 46 - 46) =     44.16067  eV     1   --> A              
     e( 47 - 47) =     49.78907  eV     1   --> A              
     e( 48 - 48) =     50.75522  eV     1   --> A              
     e( 49 - 49) =     50.75793  eV     1   --> A              
     e( 50 - 50) =     52.25106  eV     1   --> A              
     e( 51 - 51) =     54.58842  eV     1   --> A              
     e( 52 - 52) =     54.61815  eV     1   --> A              
     e( 53 - 53) =     55.76033  eV     1   --> A              
     e( 54 - 54) =     58.11918  eV     1   --> A              
     e( 55 - 55) =     58.62677  eV     1   --> A              
     e( 56 - 56) =     59.34209  eV     1   --> A              
     e( 57 - 57) =     64.09979  eV     1   --> A              
     e( 58 - 58) =     65.69949  eV     1   --> A              
     e( 59 - 59) =     65.70733  eV     1   --> A              
     e( 60 - 60) =     66.00367  eV     1   --> A              
     e( 61 - 61) =     68.20946  eV     1   --> A              
     e( 62 - 62) =     68.61260  eV     1   --> A              
     e( 63 - 63) =     70.96617  eV     1   --> A              
     e( 64 - 64) =     71.00181  eV     1   --> A              
     e( 65 - 65) =     71.00716  eV     1   --> A              
     e( 66 - 66) =     71.08101  eV     1   --> A              
     e( 67 - 67) =     71.94349  eV     1   --> A              
     e( 68 - 68) =     72.72384  eV     1   --> A              
     e( 69 - 69) =     72.99940  eV     1   --> A              
     e( 70 - 70) =     73.56373  eV     1   --> A              
     e( 71 - 71) =     73.56621  eV     1   --> A              
     e( 72 - 72) =     74.03230  eV     1   --> A              
     e( 73 - 73) =     74.24098  eV     1   --> A              
     e( 74 - 74) =     78.21953  eV     1   --> A              
     e( 75 - 75) =     79.36927  eV     1   --> A              
     e( 76 - 76) =     80.02707  eV     1   --> A              
     e( 77 - 77) =     80.58953  eV     1   --> A              
     e( 78 - 78) =     84.63074  eV     1   --> A              
     e( 79 - 79) =     84.90216  eV     1   --> A              
     e( 80 - 80) =     86.06318  eV     1   --> A              
     e( 81 - 82) =     87.07330  eV     2   -->   2 A              
     e( 83 - 83) =     87.07638  eV     1   --> A              
     e( 84 - 84) =     88.87354  eV     1   --> A              
     e( 85 - 85) =     88.99785  eV     1   --> A              
     e( 86 - 86) =     89.12133  eV     1   --> A              
     e( 87 - 87) =     89.95095  eV     1   --> A              
     e( 88 - 88) =     90.20869  eV     1   --> A              
     e( 89 - 89) =     90.76617  eV     1   --> A              
     e( 90 - 90) =     91.18133  eV     1   --> A              
     e( 91 - 91) =     91.18235  eV     1   --> A              
     e( 92 - 92) =     92.11165  eV     1   --> A              
     e( 93 - 93) =     92.65783  eV     1   --> A              
     e( 94 - 94) =     93.95790  eV     1   --> A              
     e( 95 - 95) =     93.96678  eV     1   --> A              
     e( 96 - 96) =     94.81180  eV     1   --> A              
     e( 97 - 97) =     95.62722  eV     1   --> A              
     e( 98 - 98) =     96.17455  eV     1   --> A              
     e( 99 - 99) =     96.82119  eV     1   --> A              
     e(100 -100) =     96.82669  eV     1   --> A              

 **************************************************************************

 **************************************************************************

                    xk=(   0.00000,  -0.15076,  -0.09232  )

     Band symmetry, C_1 (1)     point group:

     e(  1 -  1) =    -90.51253  eV     1   --> A              
     e(  2 -  2) =    -88.41671  eV     1   --> A              
     e(  3 -  3) =    -50.85530  eV     1   --> A              
     e(  4 -  4) =    -50.84167  eV     1   --> A              
     e(  5 -  5) =    -50.84028  eV     1   --> A              
     e(  6 -  6) =    -48.80929  eV     1   --> A              
     e(  7 -  7) =    -48.79599  eV     1   --> A              
     e(  8 -  8) =    -48.79430  eV     1   --> A              
     e(  9 -  9) =     -5.53290  eV     1   --> A              
     e( 10 - 10) =     -4.14037  eV     1   --> A              
     e( 11 - 11) =      3.55620  eV     1   --> A              
     e( 12 - 12) =      6.41836  eV     1   --> A              
     e( 13 - 13) =      6.50474  eV     1   --> A              
     e( 14 - 14) =      8.75293  eV     1   --> A              
     e( 15 - 15) =      9.02188  eV     1   --> A              
     e( 16 - 16) =      9.21169  eV     1   --> A              
     e( 17 - 17) =      9.53426  eV     1   --> A              
     e( 18 - 18) =      9.92212  eV     1   --> A              
     e( 19 - 19) =     10.04717  eV     1   --> A              
     e( 20 - 20) =     10.29996  eV     1   --> A              
     e( 21 - 21) =     10.47713  eV     1   --> A              
     e( 22 - 22) =     11.13116  eV     1   --> A              
     e( 23 - 23) =     11.52055  eV     1   --> A              
     e( 24 - 24) =     11.60267  eV     1   --> A              
     e( 25 - 25) =     16.27133  eV     1   --> A              
     e( 26 - 26) =     16.30032  eV     1   --> A              
     e( 27 - 27) =     16.63447  eV     1   --> A              
     e( 28 - 28) =     20.52884  eV     1   --> A              
     e( 29 - 29) =     24.55918  eV     1   --> A              
     e( 30 - 30) =     27.97091  eV     1   --> A              
     e( 31 - 31) =     28.76874  eV     1   --> A              
     e( 32 - 32) =     30.62009  eV     1   --> A              
     e( 33 - 33) =     33.15570  eV     1   --> A              
     e( 34 - 34) =     33.15647  eV     1   --> A              
     e( 35 - 35) =     34.21819  eV     1   --> A              
     e( 36 - 36) =     36.31409  eV     1   --> A              
     e( 37 - 37) =     36.31941  eV     1   --> A              
     e( 38 - 38) =     36.55305  eV     1   --> A              
     e( 39 - 39) =     37.86306  eV     1   --> A              
     e( 40 - 40) =     38.67045  eV     1   --> A              
     e( 41 - 41) =     40.29586  eV     1   --> A              
     e( 42 - 42) =     41.71327  eV     1   --> A              
     e( 43 - 43) =     41.71899  eV     1   --> A              
     e( 44 - 44) =     42.17684  eV     1   --> A              
     e( 45 - 45) =     43.72225  eV     1   --> A              
     e( 46 - 46) =     44.37721  eV     1   --> A              
     e( 47 - 47) =     49.59429  eV     1   --> A              
     e( 48 - 48) =     50.74954  eV     1   --> A              
     e( 49 - 49) =     50.75225  eV     1   --> A              
     e( 50 - 50) =     52.50478  eV     1   --> A              
     e( 51 - 51) =     54.52577  eV     1   --> A              
     e( 52 - 52) =     54.54545  eV     1   --> A              
     e( 53 - 53) =     55.62763  eV     1   --> A              
     e( 54 - 54) =     58.27715  eV     1   --> A              
     e( 55 - 55) =     58.51298  eV     1   --> A              
     e( 56 - 56) =     59.52159  eV     1   --> A              
     e( 57 - 57) =     63.72769  eV     1   --> A              
     e( 58 - 58) =     65.18715  eV     1   --> A              
     e( 59 - 59) =     65.19142  eV     1   --> A              
     e( 60 - 60) =     66.04163  eV     1   --> A              
     e( 61 - 61) =     68.25413  eV     1   --> A              
     e( 62 - 62) =     68.77724  eV     1   --> A              
     e( 63 - 63) =     70.64515  eV     1   --> A              
     e( 64 - 64) =     70.96095  eV     1   --> A              
     e( 65 - 65) =     71.03364  eV     1   --> A              
     e( 66 - 66) =     71.03536  eV     1   --> A              
     e( 67 - 67) =     71.66120  eV     1   --> A              
     e( 68 - 68) =     72.80658  eV     1   --> A              
     e( 69 - 69) =     73.07414  eV     1   --> A              
     e( 70 - 70) =     74.16295  eV     1   --> A              
     e( 71 - 71) =     74.17087  eV     1   --> A              
     e( 72 - 72) =     74.21306  eV     1   --> A              
     e( 73 - 73) =     74.25628  eV     1   --> A              
     e( 74 - 74) =     77.79988  eV     1   --> A              
     e( 75 - 75) =     79.42333  eV     1   --> A              
     e( 76 - 76) =     80.53525  eV     1   --> A              
     e( 77 - 77) =     80.55157  eV     1   --> A              
     e( 78 - 78) =     84.82387  eV     1   --> A              
     e( 79 - 79) =     85.50053  eV     1   --> A              
     e( 80 - 80) =     85.54017  eV     1   --> A              
     e( 81 - 81) =     86.64528  eV     1   --> A              
     e( 82 - 82) =     86.64650  eV     1   --> A              
     e( 83 - 83) =     86.71706  eV     1   --> A              
     e( 84 - 84) =     88.56004  eV     1   --> A              
     e( 85 - 85) =     88.62908  eV     1   --> A              
     e( 86 - 86) =     88.81844  eV     1   --> A              
     e( 87 - 87) =     89.70513  eV     1   --> A              
     e( 88 - 88) =     89.94388  eV     1   --> A              
     e( 89 - 89) =     90.22618  eV     1   --> A              
     e( 90 - 90) =     90.79673  eV     1   --> A              
     e( 91 - 91) =     90.79733  eV     1   --> A              
     e( 92 - 92) =     91.81509  eV     1   --> A              
     e( 93 - 93) =     92.96330  eV     1   --> A              
     e( 94 - 94) =     93.99431  eV     1   --> A              
     e( 95 - 95) =     94.00361  eV     1   --> A              
     e( 96 - 96) =     95.15698  eV     1   --> A              
     e( 97 - 97) =     95.71713  eV     1   --> A              
     e( 98 - 98) =     96.59148  eV     1   --> A              
     e( 99 - 99) =     96.73222  eV     1   --> A              
     e(100 -100) =     96.73624  eV     1   --> A              

 **************************************************************************

 **************************************************************************

                    xk=(   0.00000,  -0.17229,  -0.10551  )

     Band symmetry, C_1 (1)     point group:

     e(  1 -  1) =    -90.51260  eV     1   --> A              
     e(  2 -  2) =    -88.41692  eV     1   --> A              
     e(  3 -  3) =    -50.85545  eV     1   --> A              
     e(  4 -  4) =    -50.84233  eV     1   --> A              
     e(  5 -  5) =    -50.84050  eV     1   --> A              
     e(  6 -  6) =    -48.80944  eV     1   --> A              
     e(  7 -  7) =    -48.79674  eV     1   --> A              
     e(  8 -  8) =    -48.79452  eV     1   --> A              
     e(  9 -  9) =     -5.51612  eV     1   --> A              
     e( 10 - 10) =     -4.14565  eV     1   --> A              
     e( 11 - 11) =      3.61776  eV     1   --> A              
     e( 12 - 12) =      6.40358  eV     1   --> A              
     e( 13 - 13) =      6.51451  eV     1   --> A              
     e( 14 - 14) =      8.61603  eV     1   --> A              
     e( 15 - 15) =      8.97711  eV     1   --> A              
     e( 16 - 16) =      9.17203  eV     1   --> A              
     e( 17 - 17) =      9.47748  eV     1   --> A              
     e( 18 - 18) =      9.91299  eV     1   --> A              
     e( 19 - 19) =     10.04750  eV     1   --> A              
     e( 20 - 20) =     10.32507  eV     1   --> A              
     e( 21 - 21) =     10.51418  eV     1   --> A              
     e( 22 - 22) =     11.12216  eV     1   --> A              
     e( 23 - 23) =     11.52967  eV     1   --> A              
     e( 24 - 24) =     11.63088  eV     1   --> A              
     e( 25 - 25) =     16.25231  eV     1   --> A              
     e( 26 - 26) =     16.28512  eV     1   --> A              
     e( 27 - 27) =     16.76478  eV     1   --> A              
     e( 28 - 28) =     20.64858  eV     1   --> A              
     e( 29 - 29) =     24.52873  eV     1   --> A              
     e( 30 - 30) =     27.82526  eV     1   --> A              
     e( 31 - 31) =     28.83192  eV     1   --> A              
     e( 32 - 32) =     30.31790  eV     1   --> A              
     e( 33 - 33) =     33.06849  eV     1   --> A              
     e( 34 - 34) =     33.06959  eV     1   --> A              
     e( 35 - 35) =     34.30767  eV     1   --> A              
     e( 36 - 36) =     36.22545  eV     1   --> A              
     e( 37 - 37) =     36.22958  eV     1   --> A              
     e( 38 - 38) =     36.65757  eV     1   --> A              
     e( 39 - 39) =     38.14103  eV     1   --> A              
     e( 40 - 40) =     38.51816  eV     1   --> A              
     e( 41 - 41) =     40.31347  eV     1   --> A              
     e( 42 - 42) =     41.99155  eV     1   --> A              
     e( 43 - 43) =     42.00109  eV     1   --> A              
     e( 44 - 44) =     42.29280  eV     1   --> A              
     e( 45 - 45) =     43.80738  eV     1   --> A              
     e( 46 - 46) =     44.59963  eV     1   --> A              
     e( 47 - 47) =     49.39518  eV     1   --> A              
     e( 48 - 48) =     50.74316  eV     1   --> A              
     e( 49 - 49) =     50.74585  eV     1   --> A              
     e( 50 - 50) =     52.77315  eV     1   --> A              
     e( 51 - 51) =     54.46397  eV     1   --> A              
     e( 52 - 52) =     54.46746  eV     1   --> A              
     e( 53 - 53) =     55.50241  eV     1   --> A              
     e( 54 - 54) =     58.38739  eV     1   --> A              
     e( 55 - 55) =     58.40076  eV     1   --> A              
     e( 56 - 56) =     59.74447  eV     1   --> A              
     e( 57 - 57) =     63.35707  eV     1   --> A              
     e( 58 - 58) =     64.67645  eV     1   --> A              
     e( 59 - 59) =     64.68007  eV     1   --> A              
     e( 60 - 60) =     66.03839  eV     1   --> A              
     e( 61 - 61) =     68.30563  eV     1   --> A              
     e( 62 - 62) =     68.92542  eV     1   --> A              
     e( 63 - 63) =     70.23569  eV     1   --> A              
     e( 64 - 64) =     70.95154  eV     1   --> A              
     e( 65 - 65) =     71.06392  eV     1   --> A              
     e( 66 - 66) =     71.06454  eV     1   --> A              
     e( 67 - 67) =     71.40175  eV     1   --> A              
     e( 68 - 68) =     72.86310  eV     1   --> A              
     e( 69 - 69) =     73.14853  eV     1   --> A              
     e( 70 - 70) =     74.26961  eV     1   --> A              
     e( 71 - 71) =     74.39648  eV     1   --> A              
     e( 72 - 72) =     74.78574  eV     1   --> A              
     e( 73 - 73) =     74.78884  eV     1   --> A              
     e( 74 - 74) =     77.42772  eV     1   --> A              
     e( 75 - 75) =     79.41444  eV     1   --> A              
     e( 76 - 76) =     80.47334  eV     1   --> A              
     e( 77 - 77) =     81.17871  eV     1   --> A              
     e( 78 - 78) =     84.48033  eV     1   --> A              
     e( 79 - 79) =     85.49813  eV     1   --> A              
     e( 80 - 80) =     86.05626  eV     1   --> A              
     e( 81 - 81) =     86.12574  eV     1   --> A              
     e( 82 - 82) =     86.19667  eV     1   --> A              
     e( 83 - 83) =     86.30679  eV     1   --> A              
     e( 84 - 84) =     88.25751  eV     1   --> A              
     e( 85 - 85) =     88.30606  eV     1   --> A              
     e( 86 - 86) =     88.55294  eV     1   --> A              
     e( 87 - 87) =     89.46555  eV     1   --> A              
     e( 88 - 88) =     89.68881  eV     1   --> A              
     e( 89 - 89) =     89.69752  eV     1   --> A              
     e( 90 - 90) =     90.42957  eV     1   --> A              
     e( 91 - 91) =     90.42983  eV     1   --> A              
     e( 92 - 92) =     91.53008  eV     1   --> A              
     e( 93 - 93) =     93.25917  eV     1   --> A              
     e( 94 - 94) =     94.02924  eV     1   --> A              
     e( 95 - 95) =     94.04051  eV     1   --> A              
     e( 96 - 96) =     95.51817  eV     1   --> A              
     e( 97 - 97) =     95.75896  eV     1   --> A              
     e( 98 - 98) =     96.41299  eV     1   --> A              
     e( 99 - 99) =     96.41973  eV     1   --> A              
     e(100 -100) =     96.98622  eV     1   --> A              

 **************************************************************************

 **************************************************************************

                    xk=(   0.00000,  -0.19383,  -0.11870  )

     Band symmetry, C_1 (1)     point group:

     e(  1 -  1) =    -90.51268  eV     1   --> A              
     e(  2 -  2) =    -88.41713  eV     1   --> A              
     e(  3 -  3) =    -50.85562  eV     1   --> A              
     e(  4 -  4) =    -50.84308  eV     1   --> A              
     e(  5 -  5) =    -50.84074  eV     1   --> A              
     e(  6 -  6) =    -48.80961  eV     1   --> A              
     e(  7 -  7) =    -48.79756  eV     1   --> A              
     e(  8 -  8) =    -48.79477  eV     1   --> A              
     e(  9 -  9) =     -5.49689  eV     1   --> A              
     e( 10 - 10) =     -4.15137  eV     1   --> A              
     e( 11 - 11) =      3.68638  eV     1   --> A              
     e( 12 - 12) =      6.38756  eV     1   --> A              
     e( 13 - 13) =      6.52522  eV     1   --> A              
     e( 14 - 14) =      8.46375  eV     1   --> A              
     e( 15 - 15) =      8.92901  eV     1   --> A              
     e( 16 - 16) =      9.11701  eV     1   --> A              
     e( 17 - 17) =      9.43630  eV     1   --> A              
     e( 18 - 18) =      9.90719  eV     1   --> A              
     e( 19 - 19) =     10.04935  eV     1   --> A              
     e( 20 - 20) =     10.34862  eV     1   --> A              
     e( 21 - 21) =     10.54656  eV     1   --> A              
     e( 22 - 22) =     11.11220  eV     1   --> A              
     e( 23 - 23) =     11.53997  eV     1   --> A              
     e( 24 - 24) =     11.66012  eV     1   --> A              
     e( 25 - 25) =     16.23418  eV     1   --> A              
     e( 26 - 26) =     16.26928  eV     1   --> A              
     e( 27 - 27) =     16.90532  eV     1   --> A              
     e( 28 - 28) =     20.77775  eV     1   --> A              
     e( 29 - 29) =     24.49494  eV     1   --> A              
     e( 30 - 30) =     27.67414  eV     1   --> A              
     e( 31 - 31) =     28.90193  eV     1   --> A              
     e( 32 - 32) =     30.01432  eV     1   --> A              
     e( 33 - 33) =     32.96413  eV     1   --> A              
     e( 34 - 34) =     32.96562  eV     1   --> A              
     e( 35 - 35) =     34.38333  eV     1   --> A              
     e( 36 - 36) =     36.15357  eV     1   --> A              
     e( 37 - 37) =     36.15706  eV     1   --> A              
     e( 38 - 38) =     36.67145  eV     1   --> A              
     e( 39 - 39) =     38.44383  eV     1   --> A              
     e( 40 - 40) =     38.48244  eV     1   --> A              
     e( 41 - 41) =     40.33488  eV     1   --> A              
     e( 42 - 42) =     42.26360  eV     1   --> A              
     e( 43 - 43) =     42.29563  eV     1   --> A              
     e( 44 - 44) =     42.42309  eV     1   --> A              
     e( 45 - 45) =     43.90214  eV     1   --> A              
     e( 46 - 46) =     44.82078  eV     1   --> A              
     e( 47 - 47) =     49.19180  eV     1   --> A              
     e( 48 - 48) =     50.73623  eV     1   --> A              
     e( 49 - 49) =     50.73892  eV     1   --> A              
     e( 50 - 50) =     53.05664  eV     1   --> A              
     e( 51 - 51) =     54.37474  eV     1   --> A              
     e( 52 - 52) =     54.41747  eV     1   --> A              
     e( 53 - 53) =     55.38316  eV     1   --> A              
     e( 54 - 54) =     58.25090  eV     1   --> A              
     e( 55 - 55) =     58.49470  eV     1   --> A              
     e( 56 - 56) =     59.99994  eV     1   --> A              
     e( 57 - 57) =     62.99656  eV     1   --> A              
     e( 58 - 58) =     64.17330  eV     1   --> A              
     e( 59 - 59) =     64.17670  eV     1   --> A              
     e( 60 - 60) =     65.97258  eV     1   --> A              
     e( 61 - 61) =     68.36394  eV     1   --> A              
     e( 62 - 62) =     69.05938  eV     1   --> A              
     e( 63 - 63) =     69.84828  eV     1   --> A              
     e( 64 - 64) =     70.93658  eV     1   --> A              
     e( 65 - 65) =     71.09613  eV     1   --> A              
     e( 66 - 66) =     71.09794  eV     1   --> A              
     e( 67 - 67) =     71.18999  eV     1   --> A              
     e( 68 - 68) =     72.87193  eV     1   --> A              
     e( 69 - 69) =     73.21924  eV     1   --> A              
     e( 70 - 70) =     74.27992  eV     1   --> A              
     e( 71 - 71) =     74.61171  eV     1   --> A              
     e( 72 - 72) =     75.40371  eV     1   --> A              
     e( 73 - 73) =     75.40604  eV     1   --> A              
     e( 74 - 74) =     77.12404  eV     1   --> A              
     e( 75 - 75) =     79.41009  eV     1   --> A              
     e( 76 - 76) =     80.40210  eV     1   --> A              
     e( 77 - 77) =     81.83420  eV     1   --> A              
     e( 78 - 78) =     83.86678  eV     1   --> A              
     e( 79 - 79) =     85.52394  eV     1   --> A              
     e( 80 - 80) =     85.52800  eV     1   --> A              
     e( 81 - 81) =     85.67156  eV     1   --> A              
     e( 82 - 82) =     85.86325  eV     1   --> A              
     e( 83 - 83) =     86.77145  eV     1   --> A              
     e( 84 - 84) =     87.97352  eV     1   --> A              
     e( 85 - 85) =     88.01410  eV     1   --> A              
     e( 86 - 86) =     88.31761  eV     1   --> A              
     e( 87 - 87) =     89.15575  eV     1   --> A              
     e( 88 - 88) =     89.24601  eV     1   --> A              
     e( 89 - 89) =     89.45795  eV     1   --> A              
     e( 90 - 90) =     90.08194  eV     1   --> A              
     e( 91 - 91) =     90.08206  eV     1   --> A              
     e( 92 - 92) =     91.27348  eV     1   --> A              
     e( 93 - 93) =     93.53446  eV     1   --> A              
     e( 94 - 94) =     94.06276  eV     1   --> A              
     e( 95 - 95) =     94.07855  eV     1   --> A              
     e( 96 - 96) =     95.74906  eV     1   --> A              
     e( 97 - 97) =     95.87399  eV     1   --> A              
     e( 98 - 98) =     96.11382  eV     1   --> A              
     e( 99 - 99) =     96.14057  eV     1   --> A              
     e(100 -100) =     97.35885  eV     1   --> A              

 **************************************************************************

 **************************************************************************

                    xk=(   0.00000,  -0.21537,  -0.13188  )

     Band symmetry, C_1 (1)     point group:

     e(  1 -  1) =    -90.51276  eV     1   --> A              
     e(  2 -  2) =    -88.41734  eV     1   --> A              
     e(  3 -  3) =    -50.85581  eV     1   --> A              
     e(  4 -  4) =    -50.84389  eV     1   --> A              
     e(  5 -  5) =    -50.84099  eV     1   --> A              
     e(  6 -  6) =    -48.80980  eV     1   --> A              
     e(  7 -  7) =    -48.79847  eV     1   --> A              
     e(  8 -  8) =    -48.79504  eV     1   --> A              
     e(  9 -  9) =     -5.47516  eV     1   --> A              
     e( 10 - 10) =     -4.15744  eV     1   --> A              
     e( 11 - 11) =      3.76163  eV     1   --> A              
     e( 12 - 12) =      6.37059  eV     1   --> A              
     e( 13 - 13) =      6.53672  eV     1   --> A              
     e( 14 - 14) =      8.29820  eV     1   --> A              
     e( 15 - 15) =      8.87849  eV     1   --> A              
     e( 16 - 16) =      9.04804  eV     1   --> A              
     e( 17 - 17) =      9.40922  eV     1   --> A              
     e( 18 - 18) =      9.90436  eV     1   --> A              
     e( 19 - 19) =     10.05261  eV     1   --> A              
     e( 20 - 20) =     10.37072  eV     1   --> A              
     e( 21 - 21) =     10.57425  eV     1   --> A              
     e( 22 - 22) =     11.10153  eV     1   --> A              
     e( 23 - 23) =     11.55134  eV     1   --> A              
     e( 24 - 24) =     11.68960  eV     1   --> A              
     e( 25 - 25) =     16.21766  eV     1   --> A              
     e( 26 - 26) =     16.25322  eV     1   --> A              
     e( 27 - 27) =     17.05432  eV     1   --> A              
     e( 28 - 28) =     20.91429  eV     1   --> A              
     e( 29 - 29) =     24.45826  eV     1   --> A              
     e( 30 - 30) =     27.52046  eV     1   --> A              
     e( 31 - 31) =     28.97821  eV     1   --> A              
     e( 32 - 32) =     29.71105  eV     1   --> A              
     e( 33 - 33) =     32.84260  eV     1   --> A              
     e( 34 - 34) =     32.84450  eV     1   --> A              
     e( 35 - 35) =     34.44749  eV     1   --> A              
     e( 36 - 36) =     36.10157  eV     1   --> A              
     e( 37 - 37) =     36.10465  eV     1   --> A              
     e( 38 - 38) =     36.57393  eV     1   --> A              
     e( 39 - 39) =     38.58278  eV     1   --> A              
     e( 40 - 40) =     38.76757  eV     1   --> A              
     e( 41 - 41) =     40.36091  eV     1   --> A              
     e( 42 - 42) =     42.45153  eV     1   --> A              
     e( 43 - 43) =     42.59859  eV     1   --> A              
     e( 44 - 44) =     42.64452  eV     1   --> A              
     e( 45 - 45) =     44.00613  eV     1   --> A              
     e( 46 - 46) =     45.03480  eV     1   --> A              
     e( 47 - 47) =     48.98449  eV     1   --> A              
     e( 48 - 48) =     50.72906  eV     1   --> A              
     e( 49 - 49) =     50.73174  eV     1   --> A              
     e( 50 - 50) =     53.35548  eV     1   --> A              
     e( 51 - 51) =     54.27889  eV     1   --> A              
     e( 52 - 52) =     54.37928  eV     1   --> A              
     e( 53 - 53) =     55.26883  eV     1   --> A              
     e( 54 - 54) =     58.10392  eV     1   --> A              
     e( 55 - 55) =     58.56627  eV     1   --> A              
     e( 56 - 56) =     60.26925  eV     1   --> A              
     e( 57 - 57) =     62.65942  eV     1   --> A              
     e( 58 - 58) =     63.68045  eV     1   --> A              
     e( 59 - 59) =     63.68379  eV     1   --> A              
     e( 60 - 60) =     65.83100  eV     1   --> A              
     e( 61 - 61) =     68.42898  eV     1   --> A              
     e( 62 - 62) =     69.18217  eV     1   --> A              
     e( 63 - 63) =     69.47457  eV     1   --> A              
     e( 64 - 64) =     70.91448  eV     1   --> A              
     e( 65 - 65) =     71.04432  eV     1   --> A              
     e( 66 - 66) =     71.13556  eV     1   --> A              
     e( 67 - 67) =     71.13992  eV     1   --> A              
     e( 68 - 68) =     72.81092  eV     1   --> A              
     e( 69 - 69) =     73.28371  eV     1   --> A              
     e( 70 - 70) =     74.28498  eV     1   --> A              
     e( 71 - 71) =     74.84301  eV     1   --> A              
     e( 72 - 72) =     76.02061  eV     1   --> A              
     e( 73 - 73) =     76.02248  eV     1   --> A              
     e( 74 - 74) =     76.90717  eV     1   --> A              
     e( 75 - 75) =     79.42151  eV     1   --> A              
     e( 76 - 76) =     80.31930  eV     1   --> A              
     e( 77 - 77) =     82.50020  eV     1   --> A              
     e( 78 - 78) =     83.22978  eV     1   --> A              
     e( 79 - 79) =     84.89421  eV     1   --> A              
     e( 80 - 80) =     84.89576  eV     1   --> A              
     e( 81 - 81) =     85.36773  eV     1   --> A              
     e( 82 - 82) =     85.80914  eV     1   --> A              
     e( 83 - 83) =     87.35009  eV     1   --> A              
     e( 84 - 84) =     87.70052  eV     1   --> A              
     e( 85 - 85) =     87.73635  eV     1   --> A              
     e( 86 - 86) =     88.16766  eV     1   --> A              
     e( 87 - 87) =     88.62844  eV     1   --> A              
     e( 88 - 88) =     89.03130  eV     1   --> A              
     e( 89 - 89) =     89.23891  eV     1   --> A              
     e( 90 - 90) =     89.75591  eV     1   --> A              
     e( 91 - 91) =     89.75605  eV     1   --> A              
     e( 92 - 92) =     91.05856  eV     1   --> A              
     e( 93 - 93) =     93.77938  eV     1   --> A              
     e( 94 - 94) =     94.09459  eV     1   --> A              
     e( 95 - 95) =     94.12096  eV     1   --> A              
     e( 96 - 96) =     95.68802  eV     1   --> A              
     e( 97 - 97) =     95.82911  eV     1   --> A              
     e( 98 - 98) =     95.84533  eV     1   --> A              
     e( 99 - 99) =     96.29898  eV     1   --> A              
     e(100 -100) =     97.71298  eV     1   --> A              

 **************************************************************************

 **************************************************************************

                    xk=(   0.00000,  -0.23690,  -0.14507  )

     Band symmetry, C_1 (1)     point group:

     e(  1 -  1) =    -90.51284  eV     1   --> A              
     e(  2 -  2) =    -88.41755  eV     1   --> A              
     e(  3 -  3) =    -50.85602  eV     1   --> A              
     e(  4 -  4) =    -50.84478  eV     1   --> A              
     e(  5 -  5) =    -50.84127  eV     1   --> A              
     e(  6 -  6) =    -48.81000  eV     1   --> A              
     e(  7 -  7) =    -48.79945  eV     1   --> A              
     e(  8 -  8) =    -48.79534  eV     1   --> A              
     e(  9 -  9) =     -5.45087  eV     1   --> A              
     e( 10 - 10) =     -4.16377  eV     1   --> A              
     e( 11 - 11) =      3.84302  eV     1   --> A              
     e( 12 - 12) =      6.35301  eV     1   --> A              
     e( 13 - 13) =      6.54885  eV     1   --> A              
     e( 14 - 14) =      8.12149  eV     1   --> A              
     e( 15 - 15) =      8.82643  eV     1   --> A              
     e( 16 - 16) =      8.96894  eV     1   --> A              
     e( 17 - 17) =      9.39231  eV     1   --> A              
     e( 18 - 18) =      9.90410  eV     1   --> A              
     e( 19 - 19) =     10.05709  eV     1   --> A              
     e( 20 - 20) =     10.39150  eV     1   --> A              
     e( 21 - 21) =     10.59726  eV     1   --> A              
     e( 22 - 22) =     11.09047  eV     1   --> A              
     e( 23 - 23) =     11.56366  eV     1   --> A              
     e( 24 - 24) =     11.71859  eV     1   --> A              
     e( 25 - 25) =     16.20334  eV     1   --> A              
     e( 26 - 26) =     16.23742  eV     1   --> A              
     e( 27 - 27) =     17.21010  eV     1   --> A              
     e( 28 - 28) =     21.05600  eV     1   --> A              
     e( 29 - 29) =     24.41934  eV     1   --> A              
     e( 30 - 30) =     27.36682  eV     1   --> A              
     e( 31 - 31) =     29.06017  eV     1   --> A              
     e( 32 - 32) =     29.40948  eV     1   --> A              
     e( 33 - 33) =     32.70471  eV     1   --> A              
     e( 34 - 34) =     32.70705  eV     1   --> A              
     e( 35 - 35) =     34.50247  eV     1   --> A              
     e( 36 - 36) =     36.07069  eV     1   --> A              
     e( 37 - 37) =     36.07375  eV     1   --> A              
     e( 38 - 38) =     36.38706  eV     1   --> A              
     e( 39 - 39) =     38.79634  eV     1   --> A              
     e( 40 - 40) =     39.10865  eV     1   --> A              
     e( 41 - 41) =     40.39234  eV     1   --> A              
     e( 42 - 42) =     42.57113  eV     1   --> A              
     e( 43 - 43) =     42.90628  eV     1   --> A              
     e( 44 - 44) =     42.93989  eV     1   --> A              
     e( 45 - 45) =     44.11902  eV     1   --> A              
     e( 46 - 46) =     45.23697  eV     1   --> A              
     e( 47 - 47) =     48.77393  eV     1   --> A              
     e( 48 - 48) =     50.72208  eV     1   --> A              
     e( 49 - 49) =     50.72474  eV     1   --> A              
     e( 50 - 50) =     53.66955  eV     1   --> A              
     e( 51 - 51) =     54.17763  eV     1   --> A              
     e( 52 - 52) =     54.35581  eV     1   --> A              
     e( 53 - 53) =     55.15885  eV     1   --> A              
     e( 54 - 54) =     57.94642  eV     1   --> A              
     e( 55 - 55) =     58.62181  eV     1   --> A              
     e( 56 - 56) =     60.52102  eV     1   --> A              
     e( 57 - 57) =     62.37202  eV     1   --> A              
     e( 58 - 58) =     63.19997  eV     1   --> A              
     e( 59 - 59) =     63.20332  eV     1   --> A              
     e( 60 - 60) =     65.61195  eV     1   --> A              
     e( 61 - 61) =     68.50054  eV     1   --> A              
     e( 62 - 62) =     69.09968  eV     1   --> A              
     e( 63 - 63) =     69.29684  eV     1   --> A              
     e( 64 - 64) =     70.88344  eV     1   --> A              
[...]
     e( 96 - 96) =     94.07028  eV     1   --> A              
     e( 97 - 97) =     94.79451  eV     1   --> A              
     e( 98 - 98) =     94.99974  eV     1   --> A              
     e( 99 - 99) =     95.20953  eV     1   --> A              
     e(100 -100) =     95.88545  eV     1   --> A              

 **************************************************************************

 **************************************************************************

                    xk=(   0.00781,  -0.02591,  -0.04231  )

     Band symmetry, C_1 (1)     point group:

     e(  1 -  1) =    -90.51226  eV     1   --> A              
     e(  2 -  2) =    -88.41599  eV     1   --> A              
     e(  3 -  3) =    -50.85484  eV     1   --> A              
     e(  4 -  4) =    -50.83993  eV     1   --> A              
     e(  5 -  5) =    -50.83931  eV     1   --> A              
     e(  6 -  6) =    -48.80883  eV     1   --> A              
     e(  7 -  7) =    -48.79379  eV     1   --> A              
     e(  8 -  8) =    -48.79353  eV     1   --> A              
     e(  9 -  9) =     -5.58219  eV     1   --> A              
     e( 10 - 10) =     -4.12181  eV     1   --> A              
     e( 11 - 11) =      3.36428  eV     1   --> A              
     e( 12 - 12) =      6.46556  eV     1   --> A              
     e( 13 - 13) =      6.47320  eV     1   --> A              
     e( 14 - 14) =      9.15601  eV     1   --> A              
     e( 15 - 15) =      9.16271  eV     1   --> A              
     e( 16 - 16) =      9.29457  eV     1   --> A              
     e( 17 - 17) =      9.92330  eV     1   --> A              
     e( 18 - 18) =     10.04818  eV     1   --> A              
     e( 19 - 19) =     10.06861  eV     1   --> A              
     e( 20 - 20) =     10.12369  eV     1   --> A              
     e( 21 - 21) =     10.22479  eV     1   --> A              
     e( 22 - 22) =     11.15842  eV     1   --> A              
     e( 23 - 23) =     11.49280  eV     1   --> A              
     e( 24 - 24) =     11.50277  eV     1   --> A              
     e( 25 - 25) =     16.20009  eV     1   --> A              
     e( 26 - 26) =     16.34667  eV     1   --> A              
     e( 27 - 27) =     16.35645  eV     1   --> A              
     e( 28 - 28) =     20.13690  eV     1   --> A              
     e( 29 - 29) =     24.65148  eV     1   --> A              
     e( 30 - 30) =     28.49094  eV     1   --> A              
     e( 31 - 31) =     28.56989  eV     1   --> A              
     e( 32 - 32) =     31.98351  eV     1   --> A              
     e( 33 - 33) =     33.33279  eV     1   --> A              
     e( 34 - 34) =     33.39754  eV     1   --> A              
     e( 35 - 35) =     33.57942  eV     1   --> A              
     e( 36 - 36) =     35.86021  eV     1   --> A              
     e( 37 - 37) =     36.73657  eV     1   --> A              
     e( 38 - 38) =     36.89190  eV     1   --> A              
     e( 39 - 39) =     36.98343  eV     1   --> A              
     e( 40 - 40) =     39.98113  eV     1   --> A              
     e( 41 - 41) =     40.19773  eV     1   --> A              
     e( 42 - 42) =     40.63900  eV     1   --> A              
     e( 43 - 43) =     40.72830  eV     1   --> A              
     e( 44 - 44) =     41.47935  eV     1   --> A              
     e( 45 - 45) =     43.46839  eV     1   --> A              
     e( 46 - 46) =     43.49995  eV     1   --> A              
     e( 47 - 47) =     50.52974  eV     1   --> A              
     e( 48 - 48) =     50.76304  eV     1   --> A              
     e( 49 - 49) =     50.77497  eV     1   --> A              
     e( 50 - 50) =     51.37294  eV     1   --> A              
     e( 51 - 51) =     54.77520  eV     1   --> A              
     e( 52 - 52) =     54.83160  eV     1   --> A              
     e( 53 - 53) =     56.63347  eV     1   --> A              
     e( 54 - 54) =     57.02893  eV     1   --> A              
     e( 55 - 55) =     58.96275  eV     1   --> A              
     e( 56 - 56) =     58.99583  eV     1   --> A              
     e( 57 - 57) =     65.40899  eV     1   --> A              
     e( 58 - 58) =     65.67967  eV     1   --> A              
     e( 59 - 59) =     67.54205  eV     1   --> A              
     e( 60 - 60) =     67.84984  eV     1   --> A              
     e( 61 - 61) =     67.89612  eV     1   --> A              
     e( 62 - 62) =     67.98781  eV     1   --> A              
     e( 63 - 63) =     70.94138  eV     1   --> A              
     e( 64 - 64) =     70.96901  eV     1   --> A              
     e( 65 - 65) =     71.03696  eV     1   --> A              
     e( 66 - 66) =     71.20990  eV     1   --> A              
     e( 67 - 67) =     71.48825  eV     1   --> A              
     e( 68 - 68) =     72.42036  eV     1   --> A              
     e( 69 - 69) =     72.44230  eV     1   --> A              
     e( 70 - 70) =     72.72211  eV     1   --> A              
     e( 71 - 71) =     73.17253  eV     1   --> A              
     e( 72 - 72) =     73.62635  eV     1   --> A              
     e( 73 - 73) =     74.19102  eV     1   --> A              
     e( 74 - 74) =     77.55254  eV     1   --> A              
     e( 75 - 75) =     79.94196  eV     1   --> A              
     e( 76 - 76) =     80.05218  eV     1   --> A              
     e( 77 - 77) =     80.81001  eV     1   --> A              
     e( 78 - 78) =     82.99791  eV     1   --> A              
     e( 79 - 79) =     83.13743  eV     1   --> A              
     e( 80 - 80) =     87.87260  eV     1   --> A              
     e( 81 - 81) =     87.89440  eV     1   --> A              
     e( 82 - 82) =     87.94143  eV     1   --> A              
     e( 83 - 83) =     88.50614  eV     1   --> A              
     e( 84 - 84) =     89.72824  eV     1   --> A              
     e( 85 - 85) =     90.46584  eV     1   --> A              
     e( 86 - 86) =     90.62443  eV     1   --> A              
     e( 87 - 87) =     90.79482  eV     1   --> A              
     e( 88 - 88) =     90.85243  eV     1   --> A              
     e( 89 - 89) =     92.23821  eV     1   --> A              
     e( 90 - 90) =     92.67559  eV     1   --> A              
     e( 91 - 91) =     92.86167  eV     1   --> A              
     e( 92 - 92) =     93.00387  eV     1   --> A              
     e( 93 - 93) =     93.08806  eV     1   --> A              
     e( 94 - 94) =     93.75292  eV     1   --> A              
     e( 95 - 95) =     93.83277  eV     1   --> A              
     e( 96 - 96) =     93.85460  eV     1   --> A              
     e( 97 - 97) =     94.30746  eV     1   --> A              
     e( 98 - 98) =     94.99920  eV     1   --> A              
     e( 99 - 99) =     95.13899  eV     1   --> A              
     e(100 -100) =     95.44366  eV     1   --> A              

 **************************************************************************

 **************************************************************************

                    xk=(   0.00391,  -0.01296,  -0.02116  )

     Band symmetry, C_1 (1)     point group:

     e(  1 -  1) =    -90.51225  eV     1   --> A              
     e(  2 -  2) =    -88.41594  eV     1   --> A              
     e(  3 -  3) =    -50.85480  eV     1   --> A              
     e(  4 -  4) =    -50.83980  eV     1   --> A              
     e(  5 -  5) =    -50.83924  eV     1   --> A              
     e(  6 -  6) =    -48.80879  eV     1   --> A              
     e(  7 -  7) =    -48.79363  eV     1   --> A              
     e(  8 -  8) =    -48.79346  eV     1   --> A              
     e(  9 -  9) =     -5.58537  eV     1   --> A              
     e( 10 - 10) =     -4.12154  eV     1   --> A              
     e( 11 - 11) =      3.35249  eV     1   --> A              
     e( 12 - 12) =      6.46947  eV     1   --> A              
     e( 13 - 13) =      6.47132  eV     1   --> A              
     e( 14 - 14) =      9.17593  eV     1   --> A              
     e( 15 - 15) =      9.17805  eV     1   --> A              
     e( 16 - 16) =      9.29903  eV     1   --> A              
     e( 17 - 17) =     10.00418  eV     1   --> A              
     e( 18 - 18) =     10.06021  eV     1   --> A              
     e( 19 - 19) =     10.06620  eV     1   --> A              
     e( 20 - 20) =     10.11133  eV     1   --> A              
     e( 21 - 21) =     10.15920  eV     1   --> A              
     e( 22 - 22) =     11.15993  eV     1   --> A              
     e( 23 - 23) =     11.49149  eV     1   --> A              
     e( 24 - 24) =     11.49532  eV     1   --> A              
     e( 25 - 25) =     16.16905  eV     1   --> A              
     e( 26 - 26) =     16.35535  eV     1   --> A              
     e( 27 - 27) =     16.35830  eV     1   --> A              
     e( 28 - 28) =     20.10567  eV     1   --> A              
     e( 29 - 29) =     24.65911  eV     1   --> A              
     e( 30 - 30) =     28.53719  eV     1   --> A              
     e( 31 - 31) =     28.55718  eV     1   --> A              
     e( 32 - 32) =     32.14588  eV     1   --> A              
     e( 33 - 33) =     33.37796  eV     1   --> A              
     e( 34 - 34) =     33.39423  eV     1   --> A              
     e( 35 - 35) =     33.44623  eV     1   --> A              
     e( 36 - 36) =     35.79207  eV     1   --> A              
     e( 37 - 37) =     36.84883  eV     1   --> A              
     e( 38 - 38) =     36.89191  eV     1   --> A              
     e( 39 - 39) =     36.91402  eV     1   --> A              
     e( 40 - 40) =     40.15260  eV     1   --> A              
     e( 41 - 41) =     40.21226  eV     1   --> A              
     e( 42 - 42) =     40.60138  eV     1   --> A              
     e( 43 - 43) =     40.61997  eV     1   --> A              
     e( 44 - 44) =     41.31709  eV     1   --> A              
     e( 45 - 45) =     43.44153  eV     1   --> A              
     e( 46 - 46) =     43.44943  eV     1   --> A              
     e( 47 - 47) =     50.68721  eV     1   --> A              
     e( 48 - 48) =     50.76944  eV     1   --> A              
     e( 49 - 49) =     50.77403  eV     1   --> A              
     e( 50 - 50) =     51.19982  eV     1   --> A              
     e( 51 - 51) =     54.81574  eV     1   --> A              
     e( 52 - 52) =     54.83018  eV     1   --> A              
     e( 53 - 53) =     56.68949  eV     1   --> A              
     e( 54 - 54) =     56.93757  eV     1   --> A              
     e( 55 - 55) =     58.97257  eV     1   --> A              
     e( 56 - 56) =     58.98079  eV     1   --> A              
     e( 57 - 57) =     65.60540  eV     1   --> A              
     e( 58 - 58) =     65.67930  eV     1   --> A              
     e( 59 - 59) =     67.72335  eV     1   --> A              
     e( 60 - 60) =     67.93025  eV     1   --> A              
     e( 61 - 61) =     68.02262  eV     1   --> A              
     e( 62 - 62) =     68.06032  eV     1   --> A              
     e( 63 - 63) =     70.92601  eV     1   --> A              
     e( 64 - 64) =     70.94172  eV     1   --> A              
     e( 65 - 65) =     70.96692  eV     1   --> A              
     e( 66 - 66) =     71.02586  eV     1   --> A              
     e( 67 - 67) =     71.08572  eV     1   --> A              
     e( 68 - 68) =     72.43576  eV     1   --> A              
     e( 69 - 69) =     72.54446  eV     1   --> A              
     e( 70 - 70) =     72.68496  eV     1   --> A              
     e( 71 - 71) =     73.45764  eV     1   --> A              
     e( 72 - 72) =     73.58260  eV     1   --> A              
     e( 73 - 73) =     74.18559  eV     1   --> A              
     e( 74 - 74) =     77.20625  eV     1   --> A              
     e( 75 - 75) =     80.18479  eV     1   --> A              
     e( 76 - 76) =     80.22680  eV     1   --> A              
     e( 77 - 77) =     80.86928  eV     1   --> A              
     e( 78 - 78) =     82.75108  eV     1   --> A              
     e( 79 - 79) =     82.79523  eV     1   --> A              
     e( 80 - 80) =     87.95617  eV     1   --> A              
     e( 81 - 81) =     87.96172  eV     1   --> A              
     e( 82 - 82) =     87.97323  eV     1   --> A              
     e( 83 - 83) =     89.04069  eV     1   --> A              
     e( 84 - 84) =     89.88302  eV     1   --> A              
     e( 85 - 85) =     90.18917  eV     1   --> A              
     e( 86 - 86) =     90.88869  eV     1   --> A              
     e( 87 - 87) =     90.93852  eV     1   --> A              
     e( 88 - 88) =     90.95900  eV     1   --> A              
     e( 89 - 89) =     92.58958  eV     1   --> A              
     e( 90 - 90) =     93.16092  eV     1   --> A              
     e( 91 - 91) =     93.18733  eV     1   --> A              
     e( 92 - 92) =     93.20476  eV     1   --> A              
     e( 93 - 93) =     93.23397  eV     1   --> A              
     e( 94 - 94) =     93.64604  eV     1   --> A              
     e( 95 - 95) =     93.70086  eV     1   --> A              
     e( 96 - 96) =     93.73356  eV     1   --> A              
     e( 97 - 97) =     93.85208  eV     1   --> A              
     e( 98 - 98) =     94.97964  eV     1   --> A              
     e( 99 - 99) =     95.04309  eV     1   --> A              
     e(100 -100) =     95.10326  eV     1   --> A              

 **************************************************************************

 **************************************************************************

                    xk=(   0.00000,   0.00000,   0.00000  )

     point group C_i (-1)   
     there are  2 classes
     the character table:

       E     i    
A_g    1.00  1.00
A_u    1.00 -1.00

     the symmetry operations in each class and the name of the first element:

     E        1
                                                                 
     i        2
                                                                 

     Band symmetry, C_i (-1)    point group:

     e(  1 -  1) =    -90.51225  eV     1   --> A_g            
     e(  2 -  2) =    -88.41593  eV     1   --> A_g            
     e(  3 -  3) =    -50.85479  eV     1   --> A_u            
     e(  4 -  4) =    -50.83975  eV     1   --> A_u            
     e(  5 -  5) =    -50.83921  eV     1   --> A_u            
     e(  6 -  6) =    -48.80877  eV     1   --> A_u            
     e(  7 -  7) =    -48.79358  eV     1   --> A_u            
     e(  8 -  8) =    -48.79343  eV     1   --> A_u            
     e(  9 -  9) =     -5.58643  eV     1   --> A_g            
     e( 10 - 10) =     -4.12145  eV     1   --> A_u            
     e( 11 - 11) =      3.34856  eV     1   --> A_g            
     e( 12 - 12) =      6.47061  eV     1   --> A_g            
     e( 13 - 13) =      6.47086  eV     1   --> A_g            
     e( 14 - 14) =      9.18230  eV     1   --> A_g            
     e( 15 - 15) =      9.18311  eV     1   --> A_g            
     e( 16 - 16) =      9.30085  eV     1   --> A_g            
     e( 17 - 17) =     10.06298  eV     1   --> A_u            
     e( 18 - 19) =     10.06533  eV     2   -->   2 A_u            
     e( 20 - 20) =     10.10478  eV     1   --> A_g            
     e( 21 - 21) =     10.10702  eV     1   --> A_g            
     e( 22 - 22) =     11.16042  eV     1   --> A_g            
     e( 23 - 23) =     11.49098  eV     1   --> A_g            
     e( 24 - 24) =     11.49282  eV     1   --> A_g            
     e( 25 - 25) =     16.15856  eV     1   --> A_g            
     e( 26 - 26) =     16.35820  eV     1   --> A_g            
     e( 27 - 27) =     16.35911  eV     1   --> A_g            
     e( 28 - 28) =     20.09518  eV     1   --> A_u            
     e( 29 - 29) =     24.66165  eV     1   --> A_g            
     e( 30 - 30) =     28.55282  eV     1   --> A_u            
     e( 31 - 31) =     28.55295  eV     1   --> A_u            
     e( 32 - 32) =     32.20886  eV     1   --> A_u            
     e( 33 - 33) =     33.39298  eV     1   --> A_g            
     e( 34 - 35) =     33.39311  eV     2   -->   2 A_g            
     e( 36 - 36) =     35.76902  eV     1   --> A_g            
     e( 37 - 37) =     36.88553  eV     1   --> A_u            
     e( 38 - 38) =     36.89265  eV     1   --> A_u            
     e( 39 - 39) =     36.89278  eV     1   --> A_u            
     e( 40 - 40) =     40.21638  eV     1   --> A_g            
     e( 41 - 41) =     40.21661  eV     1   --> A_g            
     e( 42 - 42) =     40.58971  eV     1   --> A_g            
     e( 43 - 43) =     40.59005  eV     1   --> A_g            
     e( 44 - 44) =     41.24799  eV     1   --> A_u            
     e( 45 - 46) =     43.43248  eV     2   -->   2 A_u            
     e( 47 - 48) =     50.77113  eV     2   -->   2 A_u            
     e( 49 - 49) =     50.77424  eV     1   --> A_u            
     e( 50 - 50) =     51.11059  eV     1   --> A_g            
     e( 51 - 51) =     54.82951  eV     1   --> A_g            
     e( 52 - 52) =     54.82971  eV     1   --> A_g            
     e( 53 - 53) =     56.72158  eV     1   --> A_u            
     e( 54 - 54) =     56.89346  eV     1   --> A_g            
     e( 55 - 56) =     58.97575  eV     2   -->   2 A_u            
     e( 57 - 58) =     65.67921  eV     2   -->   2 A_g            
     e( 59 - 59) =     67.65736  eV     1   --> A_u            
     e( 60 - 60) =     68.08413  eV     1   --> A_u            
     e( 61 - 62) =     68.08576  eV     2   -->   2 A_u            
     e( 63 - 64) =     70.89265  eV     2   -->   2 A_g            
     e( 65 - 65) =     70.96378  eV     1   --> A_g            
     e( 66 - 67) =     70.96624  eV     2   -->   2 A_g            
     e( 68 - 68) =     72.43486  eV     1   --> A_g            
     e( 69 - 69) =     72.58481  eV     1   --> A_u            
     e( 70 - 70) =     72.67114  eV     1   --> A_u            
     e( 71 - 72) =     73.56790  eV     2   -->   2 A_u            
     e( 73 - 73) =     74.18375  eV     1   --> A_g            
     e( 74 - 74) =     77.07721  eV     1   --> A_g            
     e( 75 - 76) =     80.27663  eV     2   -->   2 A_g            
     e( 77 - 77) =     80.92086  eV     1   --> A_g            
     e( 78 - 79) =     82.65756  eV     2   -->   2 A_u            
     e( 80 - 80) =     87.98311  eV     1   --> A_u            
     e( 81 - 82) =     87.98382  eV     2   -->   2 A_u            
     e( 83 - 83) =     89.36172  eV     1   --> A_u            
     e( 84 - 85) =     89.93171  eV     2   -->   2 A_g            
     e( 86 - 87) =     90.97931  eV     2   -->   2 A_u            
     e( 88 - 88) =     91.03247  eV     1   --> A_u            
     e( 89 - 89) =     92.81038  eV     1   --> A_g            
     e( 90 - 90) =     93.24444  eV     1   --> A_u            
     e( 91 - 92) =     93.36924  eV     2   -->   2 A_u            
     e( 93 - 93) =     93.37810  eV     1   --> A_u            
     e( 94 - 95) =     93.60349  eV     2   -->   2 A_u            
     e( 96 - 97) =     93.63422  eV     2   -->   2 A_g            
     e( 98 - 99) =     94.96499  eV     2   -->   2 A_g            
     e(100 -100) =     94.96558  eV     1   --> A_g            

 **************************************************************************
 
     BANDS        :    41.09s CPU        51.22s WALL

 
   This run was terminated on:  17:21:57   3Jan2020            

=------------------------------------------------------------------------------=
   JOB DONE.
=------------------------------------------------------------------------------=
IPL WARN> ipl_option_omp: wrong omp option 
