
     Program BANDS v.6.1 (svn rev. 13369) starts on  3Jan2020 at 15:27:28 

     This program is part of the open-source Quantum ESPRESSO suite
     for quantum simulation of materials; please cite
         "P. Giannozzi et al., J. Phys.:Condens. Matter 21 395502 (2009);
          URL http://www.quantum-espresso.org", 
     in publications or presentations arising from this work. More details at
     http://www.quantum-espresso.org/quote

     Parallel version (MPI), running on    40 processors
     R & G space division:  proc/nbgrp/npool/nimage =      40

     Reading data from directory:
     ./outdir/NiO.save

   Info: using nr1, nr2, nr3 values from input

   Info: using nr1, nr2, nr3 values from input

     IMPORTANT: XC functional enforced from input :
     Exchange-correlation      =  SLA  PW   PBX  PBC ( 1  4  3  4 0 0)
     Any further DFT definition will be discarded
     Please, verify this is what you really want

               file Ni.pbe-spn-kjpaw_psl.1.0.0.UPF: wavefunction(s)  3P 3D renormalized
               file Ni.pbe-spn-kjpaw_psl.1.0.0.UPF: wavefunction(s)  3P 3D renormalized
               file O.pbe-n-kjpaw_psl.1.0.0.UPF: wavefunction(s)  2S 2P renormalized
 
     Parallelization info
     --------------------
     sticks:   dense  smooth     PW     G-vecs:    dense   smooth      PW
     Min          82      82     22                 2333     2333     341
     Max          83      83     23                 2335     2335     344
     Sum        3287    3287    911                93351    93351   13705
 
     Generating pointlists ...
     new r_m :   0.1684 (alat units)  1.6253 (a.u.) for type    1
     new r_m :   0.1684 (alat units)  1.6253 (a.u.) for type    2
     new r_m :   0.1684 (alat units)  1.6253 (a.u.) for type    3
     high-symmetry point:  0.0000 0.0000 0.0000   x coordinate   0.0000
     high-symmetry point:  0.0000-0.9045-0.5539   x coordinate   1.0607
     high-symmetry point: -0.1875-0.6219-1.0155   x coordinate   1.6335
     high-symmetry point: -0.3438-0.1036-1.0155   x coordinate   2.1747
     high-symmetry point:  0.0000 0.0000 0.0000   x coordinate   3.2519
     high-symmetry point: -0.5000-0.1508-0.0923   x coordinate   3.7822
     high-symmetry point: -0.1875-0.9045-0.5539   x coordinate   4.7197
     high-symmetry point: -0.1875-0.6219-1.0155   x coordinate   5.2609
     high-symmetry point: -0.5000-0.1508-0.0923   x coordinate   6.3435
     high-symmetry point: -0.3438-0.1036-1.0155   x coordinate   7.2810
     high-symmetry point: -0.1875-0.9045-0.5539   x coordinate   8.2185
     high-symmetry point:  0.0000-0.9045-0.5539   x coordinate   8.4060
     high-symmetry point:  0.0000 0.0000 0.0000   x coordinate   9.4666
     high-symmetry point:  0.0000 0.0000-1.0155   x coordinate  10.4821
     high-symmetry point:  0.0000-0.6219-1.0155   x coordinate  11.1040
     high-symmetry point:  0.1875-0.6219-1.0155   x coordinate  11.2915
     high-symmetry point:  0.0000 0.0000 0.0000   x coordinate  12.4970

     Plottable bands (eV) written to file NiO.bands.dat.gnu
     Bands written to file NiO.bands.dat

 **************************************************************************

                    xk=(   0.00000,   0.00000,   0.00000  )

     point group C_i (-1)   
     there are  2 classes
     the character table:

       E     i    
A_g    1.00  1.00
A_u    1.00 -1.00

     the symmetry operations in each class and the name of the first element:

     E        1
                                                                 
     i        2
                                                                 

     Band symmetry, C_i (-1)    point group:

     e(  1 -  1) =    -90.38464  eV     1   --> A_g            
     e(  2 -  2) =    -88.33507  eV     1   --> A_g            
     e(  3 -  3) =    -50.73922  eV     1   --> A_u            
     e(  4 -  4) =    -50.72338  eV     1   --> A_u            
     e(  5 -  5) =    -50.72292  eV     1   --> A_u            
     e(  6 -  6) =    -48.73847  eV     1   --> A_u            
     e(  7 -  7) =    -48.72311  eV     1   --> A_u            
     e(  8 -  8) =    -48.72297  eV     1   --> A_u            
     e(  9 -  9) =     -5.64494  eV     1   --> A_g            
     e( 10 - 10) =     -4.19029  eV     1   --> A_u            
     e( 11 - 11) =      3.95074  eV     1   --> A_g            
     e( 12 - 12) =      6.99489  eV     1   --> A_g            
     e( 13 - 13) =      6.99506  eV     1   --> A_g            
     e( 14 - 14) =      9.76624  eV     1   --> A_g            
     e( 15 - 15) =      9.76685  eV     1   --> A_g            
     e( 16 - 16) =      9.87749  eV     1   --> A_g            
     e( 17 - 17) =     10.36796  eV     1   --> A_u            
     e( 18 - 19) =     10.36874  eV     2   -->   2 A_u            
     e( 20 - 20) =     10.62182  eV     1   --> A_g            
     e( 21 - 21) =     10.62352  eV     1   --> A_g            
     e( 22 - 22) =     11.65246  eV     1   --> A_g            
     e( 23 - 23) =     11.81325  eV     1   --> A_g            
     e( 24 - 24) =     11.81451  eV     1   --> A_g            
     e( 25 - 25) =     16.14247  eV     1   --> A_g            
     e( 26 - 26) =     16.20364  eV     1   --> A_g            
     e( 27 - 27) =     16.20444  eV     1   --> A_g            
     e( 28 - 28) =     20.08909  eV     1   --> A_u            
     e( 29 - 29) =     24.65179  eV     1   --> A_g            
     e( 30 - 30) =     28.56226  eV     1   --> A_u            
     e( 31 - 31) =     28.56237  eV     1   --> A_u            
     e( 32 - 32) =     32.20825  eV     1   --> A_u            
     e( 33 - 33) =     33.40673  eV     1   --> A_g            
     e( 34 - 35) =     33.40687  eV     2   -->   2 A_g            
     e( 36 - 36) =     35.78784  eV     1   --> A_g            
     e( 37 - 37) =     36.90572  eV     1   --> A_u            
     e( 38 - 38) =     36.91259  eV     1   --> A_u            
     e( 39 - 39) =     36.91271  eV     1   --> A_u            
     e( 40 - 40) =     40.22306  eV     1   --> A_g            
     e( 41 - 41) =     40.22320  eV     1   --> A_g            
     e( 42 - 42) =     40.59381  eV     1   --> A_g            
     e( 43 - 43) =     40.59408  eV     1   --> A_g            
     e( 44 - 44) =     41.23836  eV     1   --> A_u            
     e( 45 - 46) =     43.42588  eV     2   -->   2 A_u            
     e( 47 - 48) =     50.74410  eV     2   -->   2 A_u            
     e( 49 - 49) =     50.74755  eV     1   --> A_u            
     e( 50 - 50) =     51.13117  eV     1   --> A_g            
     e( 51 - 51) =     54.83291  eV     1   --> A_g            
     e( 52 - 52) =     54.83307  eV     1   --> A_g            
     e( 53 - 53) =     56.71391  eV     1   --> A_u            
     e( 54 - 54) =     56.89187  eV     1   --> A_g            
     e( 55 - 56) =     58.98093  eV     2   -->   2 A_u            
     e( 57 - 58) =     65.67310  eV     2   -->   2 A_g            
     e( 59 - 59) =     67.67611  eV     1   --> A_u            
     e( 60 - 60) =     68.09292  eV     1   --> A_u            
     e( 61 - 62) =     68.09424  eV     2   -->   2 A_u            
     e( 63 - 64) =     70.88463  eV     2   -->   2 A_g            
     e( 65 - 65) =     70.95740  eV     1   --> A_g            
     e( 66 - 67) =     70.95946  eV     2   -->   2 A_g            
     e( 68 - 68) =     72.45918  eV     1   --> A_g            
     e( 69 - 69) =     72.60433  eV     1   --> A_u            
     e( 70 - 70) =     72.65340  eV     1   --> A_u            
     e( 71 - 72) =     73.55033  eV     2   -->   2 A_u            
     e( 73 - 73) =     74.16270  eV     1   --> A_g            
     e( 74 - 74) =     77.06645  eV     1   --> A_g            
     e( 75 - 76) =     80.29090  eV     2   -->   2 A_g            
     e( 77 - 77) =     80.89794  eV     1   --> A_g            
     e( 78 - 79) =     82.65906  eV     2   -->   2 A_u            
     e( 80 - 80) =     87.98440  eV     1   --> A_u            
     e( 81 - 82) =     87.98520  eV     2   -->   2 A_u            
     e( 83 - 83) =     89.37845  eV     1   --> A_u            
     e( 84 - 85) =     89.93431  eV     2   -->   2 A_g            
     e( 86 - 87) =     90.98233  eV     2   -->   2 A_u            
     e( 88 - 88) =     91.03211  eV     1   --> A_u            
     e( 89 - 89) =     92.79985  eV     1   --> A_g            
     e( 90 - 90) =     93.27266  eV     1   --> A_u            
     e( 91 - 92) =     93.36960  eV     2   -->   2 A_u            
     e( 93 - 93) =     93.37826  eV     1   --> A_u            
     e( 94 - 95) =     93.59618  eV     2   -->   2 A_u            
     e( 96 - 97) =     93.63205  eV     2   -->   2 A_g            
     e( 98 - 99) =     94.95585  eV     2   -->   2 A_g            
     e(100 -100) =     94.95647  eV     1   --> A_g            

 **************************************************************************

 **************************************************************************

                    xk=(   0.00000,  -0.02154,  -0.01319  )

     point group C_1 (1)    
     there are  1 classes
     the character table:

       E    
A      1.00

     the symmetry operations in each class and the name of the first element:

     E        1
                                                                 

     Band symmetry, C_1 (1)     point group:

     e(  1 -  1) =    -90.38465  eV     1   --> A              
     e(  2 -  2) =    -88.33509  eV     1   --> A              
     e(  3 -  3) =    -50.73923  eV     1   --> A              
     e(  4 -  4) =    -50.72340  eV     1   --> A              
     e(  5 -  5) =    -50.72297  eV     1   --> A              
     e(  6 -  6) =    -48.73848  eV     1   --> A              
     e(  7 -  7) =    -48.72313  eV     1   --> A              
     e(  8 -  8) =    -48.72301  eV     1   --> A              
     e(  9 -  9) =     -5.64373  eV     1   --> A              
     e( 10 - 10) =     -4.19059  eV     1   --> A              
     e( 11 - 11) =      3.95481  eV     1   --> A              
     e( 12 - 12) =      6.99378  eV     1   --> A              
     e( 13 - 13) =      6.99579  eV     1   --> A              
     e( 14 - 14) =      9.75697  eV     1   --> A              
     e( 15 - 15) =      9.76106  eV     1   --> A              
     e( 16 - 16) =      9.87326  eV     1   --> A              
     e( 17 - 17) =     10.34486  eV     1   --> A              
     e( 18 - 18) =     10.36528  eV     1   --> A              
     e( 19 - 19) =     10.37120  eV     1   --> A              
     e( 20 - 20) =     10.62839  eV     1   --> A              
     e( 21 - 21) =     10.64272  eV     1   --> A              
     e( 22 - 22) =     11.65189  eV     1   --> A              
     e( 23 - 23) =     11.81438  eV     1   --> A              
     e( 24 - 24) =     11.81721  eV     1   --> A              
     e( 25 - 25) =     16.15323  eV     1   --> A              
     e( 26 - 26) =     16.20146  eV     1   --> A              
     e( 27 - 27) =     16.20241  eV     1   --> A              
     e( 28 - 28) =     20.09872  eV     1   --> A              
     e( 29 - 29) =     24.64971  eV     1   --> A              
     e( 30 - 30) =     28.54839  eV     1   --> A              
     e( 31 - 31) =     28.56683  eV     1   --> A              
     e( 32 - 32) =     32.14529  eV     1   --> A              
     e( 33 - 33) =     33.40281  eV     1   --> A              
     e( 34 - 34) =     33.40295  eV     1   --> A              
     e( 35 - 35) =     33.45356  eV     1   --> A              
     e( 36 - 36) =     35.80856  eV     1   --> A              
     e( 37 - 37) =     36.88791  eV     1   --> A              
     e( 38 - 38) =     36.89405  eV     1   --> A              
     e( 39 - 39) =     36.93240  eV     1   --> A              
     e( 40 - 40) =     40.15176  eV     1   --> A              
     e( 41 - 41) =     40.22742  eV     1   --> A              
     e( 42 - 42) =     40.61195  eV     1   --> A              
     e( 43 - 43) =     40.62016  eV     1   --> A              
     e( 44 - 44) =     41.30265  eV     1   --> A              
     e( 45 - 45) =     43.43202  eV     1   --> A              
     e( 46 - 46) =     43.44834  eV     1   --> A              
     e( 47 - 47) =     50.66523  eV     1   --> A              
     e( 48 - 48) =     50.74371  eV     1   --> A              
     e( 49 - 49) =     50.74676  eV     1   --> A              
     e( 50 - 50) =     51.21471  eV     1   --> A              
     e( 51 - 51) =     54.82486  eV     1   --> A              
     e( 52 - 52) =     54.82694  eV     1   --> A              
     e( 53 - 53) =     56.57783  eV     1   --> A              
     e( 54 - 54) =     57.03933  eV     1   --> A              
     e( 55 - 55) =     58.97027  eV     1   --> A              
     e( 56 - 56) =     58.98845  eV     1   --> A              
     e( 57 - 57) =     65.60194  eV     1   --> A              
     e( 58 - 58) =     65.68573  eV     1   --> A              
     e( 59 - 59) =     67.72946  eV     1   --> A              
     e( 60 - 60) =     67.96847  eV     1   --> A              
     e( 61 - 61) =     67.96964  eV     1   --> A              
     e( 62 - 62) =     68.09754  eV     1   --> A              
     e( 63 - 63) =     70.91847  eV     1   --> A              
     e( 64 - 64) =     70.91962  eV     1   --> A              
     e( 65 - 65) =     70.95956  eV     1   --> A              
     e( 66 - 66) =     71.05776  eV     1   --> A              
     e( 67 - 67) =     71.05843  eV     1   --> A              
     e( 68 - 68) =     72.46469  eV     1   --> A              
     e( 69 - 69) =     72.56529  eV     1   --> A              
     e( 70 - 70) =     72.66873  eV     1   --> A              
     e( 71 - 71) =     73.45009  eV     1   --> A              
     e( 72 - 72) =     73.56234  eV     1   --> A              
     e( 73 - 73) =     74.16457  eV     1   --> A              
     e( 74 - 74) =     77.18706  eV     1   --> A              
     e( 75 - 75) =     80.20461  eV     1   --> A              
     e( 76 - 76) =     80.24890  eV     1   --> A              
     e( 77 - 77) =     80.84997  eV     1   --> A              
     e( 78 - 78) =     82.74949  eV     1   --> A              
     e( 79 - 79) =     82.78291  eV     1   --> A              
     e( 80 - 80) =     87.96316  eV     1   --> A              
     e( 81 - 81) =     87.96515  eV     1   --> A              
     e( 82 - 82) =     87.96592  eV     1   --> A              
     e( 83 - 83) =     89.07190  eV     1   --> A              
     e( 84 - 84) =     89.89697  eV     1   --> A              
     e( 85 - 85) =     90.17468  eV     1   --> A              
     e( 86 - 86) =     90.89643  eV     1   --> A              
     e( 87 - 87) =     90.93222  eV     1   --> A              
     e( 88 - 88) =     90.96041  eV     1   --> A              
     e( 89 - 89) =     92.59475  eV     1   --> A              
     e( 90 - 90) =     93.18039  eV     1   --> A              
     e( 91 - 91) =     93.18105  eV     1   --> A              
     e( 92 - 92) =     93.21632  eV     1   --> A              
     e( 93 - 93) =     93.23254  eV     1   --> A              
     e( 94 - 94) =     93.62719  eV     1   --> A              
     e( 95 - 95) =     93.70785  eV     1   --> A              
     e( 96 - 96) =     93.71479  eV     1   --> A              
     e( 97 - 97) =     93.83037  eV     1   --> A              
     e( 98 - 98) =     94.98967  eV     1   --> A              
     e( 99 - 99) =     95.06618  eV     1   --> A              
     e(100 -100) =     95.06664  eV     1   --> A              

 **************************************************************************

 **************************************************************************

                    xk=(   0.00000,  -0.04307,  -0.02638  )

     Band symmetry, C_1 (1)     point group:

     e(  1 -  1) =    -90.38467  eV     1   --> A              
     e(  2 -  2) =    -88.33512  eV     1   --> A              
     e(  3 -  3) =    -50.73925  eV     1   --> A              
     e(  4 -  4) =    -50.72347  eV     1   --> A              
     e(  5 -  5) =    -50.72307  eV     1   --> A              
     e(  6 -  6) =    -48.73850  eV     1   --> A              
     e(  7 -  7) =    -48.72324  eV     1   --> A              
     e(  8 -  8) =    -48.72310  eV     1   --> A              
     e(  9 -  9) =     -5.64010  eV     1   --> A              
     e( 10 - 10) =     -4.19149  eV     1   --> A              
     e( 11 - 11) =      3.96700  eV     1   --> A              
     e( 12 - 12) =      6.99035  eV     1   --> A              
     e( 13 - 13) =      6.99811  eV     1   --> A              
     e( 14 - 14) =      9.72606  eV     1   --> A              
     e( 15 - 15) =      9.74519  eV     1   --> A              
     e( 16 - 16) =      9.86259  eV     1   --> A              
     e( 17 - 17) =     10.28970  eV     1   --> A              
     e( 18 - 18) =     10.35633  eV     1   --> A              
     e( 19 - 19) =     10.37816  eV     1   --> A              
     e( 20 - 20) =     10.64553  eV     1   --> A              
     e( 21 - 21) =     10.68761  eV     1   --> A              
     e( 22 - 22) =     11.65014  eV     1   --> A              
     e( 23 - 23) =     11.81738  eV     1   --> A              
     e( 24 - 24) =     11.82567  eV     1   --> A              
     e( 25 - 25) =     16.18522  eV     1   --> A              
     e( 26 - 26) =     16.19383  eV     1   --> A              
     e( 27 - 27) =     16.19764  eV     1   --> A              
     e( 28 - 28) =     20.12738  eV     1   --> A              
     e( 29 - 29) =     24.64348  eV     1   --> A              
     e( 30 - 30) =     28.50716  eV     1   --> A              
     e( 31 - 31) =     28.58041  eV     1   --> A              
     e( 32 - 32) =     31.98084  eV     1   --> A              
     e( 33 - 33) =     33.39070  eV     1   --> A              
     e( 34 - 34) =     33.39081  eV     1   --> A              
     e( 35 - 35) =     33.56931  eV     1   --> A              
     e( 36 - 36) =     35.86971  eV     1   --> A              
     e( 37 - 37) =     36.83510  eV     1   --> A              
     e( 38 - 38) =     36.84085  eV     1   --> A              
     e( 39 - 39) =     36.99346  eV     1   --> A              
     e( 40 - 40) =     39.96395  eV     1   --> A              
     e( 41 - 41) =     40.23753  eV     1   --> A              
     e( 42 - 42) =     40.68547  eV     1   --> A              
     e( 43 - 43) =     40.69942  eV     1   --> A              
     e( 44 - 44) =     41.44811  eV     1   --> A              
     e( 45 - 45) =     43.45032  eV     1   --> A              
     e( 46 - 46) =     43.51518  eV     1   --> A              
     e( 47 - 47) =     50.50927  eV     1   --> A              
     e( 48 - 48) =     50.74245  eV     1   --> A              
     e( 49 - 49) =     50.74549  eV     1   --> A              
     e( 50 - 50) =     51.38363  eV     1   --> A              
     e( 51 - 51) =     54.80086  eV     1   --> A              
     e( 52 - 52) =     54.80896  eV     1   --> A              
     e( 53 - 53) =     56.39241  eV     1   --> A              
     e( 54 - 54) =     57.25762  eV     1   --> A              
     e( 55 - 55) =     58.93860  eV     1   --> A              
     e( 56 - 56) =     59.01165  eV     1   --> A              
     e( 57 - 57) =     65.40945  eV     1   --> A              
     e( 58 - 58) =     65.72236  eV     1   --> A              
     e( 59 - 59) =     67.64721  eV     1   --> A              
     e( 60 - 60) =     67.64811  eV     1   --> A              
     e( 61 - 61) =     67.86881  eV     1   --> A              
     e( 62 - 62) =     68.10788  eV     1   --> A              
     e( 63 - 63) =     70.93190  eV     1   --> A              
     e( 64 - 64) =     70.93330  eV     1   --> A              
     e( 65 - 65) =     70.96038  eV     1   --> A              
     e( 66 - 66) =     71.39349  eV     1   --> A              
     e( 67 - 67) =     71.39389  eV     1   --> A              
     e( 68 - 68) =     72.44452  eV     1   --> A              
     e( 69 - 69) =     72.48444  eV     1   --> A              
     e( 70 - 70) =     72.71036  eV     1   --> A              
     e( 71 - 71) =     73.19186  eV     1   --> A              
     e( 72 - 72) =     73.59881  eV     1   --> A              
     e( 73 - 73) =     74.17008  eV     1   --> A              
     e( 74 - 74) =     77.51133  eV     1   --> A              
     e( 75 - 75) =     79.94666  eV     1   --> A              
     e( 76 - 76) =     80.14276  eV     1   --> A              
     e( 77 - 77) =     80.77240  eV     1   --> A              
     e( 78 - 78) =     83.00042  eV     1   --> A              
     e( 79 - 79) =     83.08700  eV     1   --> A              
     e( 80 - 80) =     87.89553  eV     1   --> A              
     e( 81 - 81) =     87.90504  eV     1   --> A              
     e( 82 - 82) =     87.90630  eV     1   --> A              
     e( 83 - 83) =     88.55022  eV     1   --> A              
     e( 84 - 84) =     89.78993  eV     1   --> A              
     e( 85 - 85) =     90.42801  eV     1   --> A              
     e( 86 - 86) =     90.65682  eV     1   --> A              
     e( 87 - 87) =     90.77702  eV     1   --> A              
     e( 88 - 88) =     90.83012  eV     1   --> A              
     e( 89 - 89) =     92.27315  eV     1   --> A              
     e( 90 - 90) =     92.81817  eV     1   --> A              
     e( 91 - 91) =     92.81979  eV     1   --> A              
     e( 92 - 92) =     92.83796  eV     1   --> A              
     e( 93 - 93) =     93.11630  eV     1   --> A              
     e( 94 - 94) =     93.72227  eV     1   --> A              
     e( 95 - 95) =     93.78549  eV     1   --> A              
     e( 96 - 96) =     93.81529  eV     1   --> A              
     e( 97 - 97) =     94.27227  eV     1   --> A              
     e( 98 - 98) =     95.08328  eV     1   --> A              
     e( 99 - 99) =     95.32393  eV     1   --> A              
     e(100 -100) =     95.32411  eV     1   --> A              

 **************************************************************************

 **************************************************************************

                    xk=(   0.00000,  -0.06461,  -0.03957  )

     Band symmetry, C_1 (1)     point group:

     e(  1 -  1) =    -90.38469  eV     1   --> A              
     e(  2 -  2) =    -88.33519  eV     1   --> A              
     e(  3 -  3) =    -50.73929  eV     1   --> A              
     e(  4 -  4) =    -50.72361  eV     1   --> A              
     e(  5 -  5) =    -50.72322  eV     1   --> A              
     e(  6 -  6) =    -48.73854  eV     1   --> A              
     e(  7 -  7) =    -48.72346  eV     1   --> A              
     e(  8 -  8) =    -48.72319  eV     1   --> A              
     e(  9 -  9) =     -5.63404  eV     1   --> A              
     e( 10 - 10) =     -4.19298  eV     1   --> A              
     e( 11 - 11) =      3.98724  eV     1   --> A              
     e( 12 - 12) =      6.98467  eV     1   --> A              
     e( 13 - 13) =      7.00195  eV     1   --> A              
     e( 14 - 14) =      9.67157  eV     1   --> A              
     e( 15 - 15) =      9.71926  eV     1   --> A              
     e( 16 - 16) =      9.84821  eV     1   --> A              
     e( 17 - 17) =     10.22133  eV     1   --> A              
     e( 18 - 18) =     10.34513  eV     1   --> A              
     e( 19 - 19) =     10.38836  eV     1   --> A              
     e( 20 - 20) =     10.67007  eV     1   --> A              
     e( 21 - 21) =     10.74082  eV     1   --> A              
     e( 22 - 22) =     11.64710  eV     1   --> A              
     e( 23 - 23) =     11.82238  eV     1   --> A              
     e( 24 - 24) =     11.83960  eV     1   --> A              
     e( 25 - 25) =     16.18141  eV     1   --> A              
     e( 26 - 26) =     16.18998  eV     1   --> A              
     e( 27 - 27) =     16.23766  eV     1   --> A              
     e( 28 - 28) =     20.17449  eV     1   --> A              
     e( 29 - 29) =     24.63311  eV     1   --> A              
     e( 30 - 30) =     28.44042  eV     1   --> A              
     e( 31 - 31) =     28.60292  eV     1   --> A              
     e( 32 - 32) =     31.75550  eV     1   --> A              
     e( 33 - 34) =     33.36971  eV     2   -->   2 A              
     e( 35 - 35) =     33.71372  eV     1   --> A              
     e( 36 - 36) =     35.96817  eV     1   --> A              
     e( 37 - 37) =     36.75448  eV     1   --> A              
     e( 38 - 38) =     36.75974  eV     1   --> A              
     e( 39 - 39) =     37.09516  eV     1   --> A              
     e( 40 - 40) =     39.71429  eV     1   --> A              
     e( 41 - 41) =     40.24917  eV     1   --> A              
     e( 42 - 42) =     40.81761  eV     1   --> A              
     e( 43 - 43) =     40.83008  eV     1   --> A              
     e( 44 - 44) =     41.61405  eV     1   --> A              
     e( 45 - 45) =     43.48063  eV     1   --> A              
     e( 46 - 46) =     43.62446  eV     1   --> A              
     e( 47 - 47) =     50.33414  eV     1   --> A              
     e( 48 - 48) =     50.74033  eV     1   --> A              
     e( 49 - 49) =     50.74337  eV     1   --> A              
     e( 50 - 50) =     51.58047  eV     1   --> A              
     e( 51 - 51) =     54.76254  eV     1   --> A              
     e( 52 - 52) =     54.77921  eV     1   --> A              
     e( 53 - 53) =     56.21536  eV     1   --> A              
     e( 54 - 54) =     57.48517  eV     1   --> A              
     e( 55 - 55) =     58.88695  eV     1   --> A              
     e( 56 - 56) =     59.05315  eV     1   --> A              
     e( 57 - 57) =     65.13591  eV     1   --> A              
     e( 58 - 58) =     65.77914  eV     1   --> A              
     e( 59 - 59) =     67.21665  eV     1   --> A              
     e( 60 - 60) =     67.21735  eV     1   --> A              
     e( 61 - 61) =     68.05374  eV     1   --> A              
     e( 62 - 62) =     68.12511  eV     1   --> A              
     e( 63 - 63) =     70.94361  eV     1   --> A              
     e( 64 - 64) =     70.94483  eV     1   --> A              
     e( 65 - 65) =     70.96140  eV     1   --> A              
     e( 66 - 66) =     71.85808  eV     1   --> A              
     e( 67 - 67) =     71.85825  eV     1   --> A              
     e( 68 - 68) =     72.23119  eV     1   --> A              
     e( 69 - 69) =     72.52424  eV     1   --> A              
     e( 70 - 70) =     72.76935  eV     1   --> A              
     e( 71 - 71) =     72.86292  eV     1   --> A              
     e( 72 - 72) =     73.66114  eV     1   --> A              
     e( 73 - 73) =     74.17897  eV     1   --> A              
     e( 74 - 74) =     77.96703  eV     1   --> A              
     e( 75 - 75) =     79.56614  eV     1   --> A              
     e( 76 - 76) =     80.01234  eV     1   --> A              
     e( 77 - 77) =     80.71507  eV     1   --> A              
     e( 78 - 78) =     83.37125  eV     1   --> A              
     e( 79 - 79) =     83.47188  eV     1   --> A              
     e( 80 - 80) =     87.77487  eV     1   --> A              
     e( 81 - 81) =     87.79664  eV     1   --> A              
     e( 82 - 82) =     87.80068  eV     1   --> A              
     e( 83 - 83) =     87.97370  eV     1   --> A              
     e( 84 - 84) =     89.62520  eV     1   --> A              
     e( 85 - 85) =     90.24312  eV     1   --> A              
     e( 86 - 86) =     90.30685  eV     1   --> A              
     e( 87 - 87) =     90.64268  eV     1   --> A              
     e( 88 - 88) =     90.80382  eV     1   --> A              
     e( 89 - 89) =     92.07452  eV     1   --> A              
     e( 90 - 90) =     92.35958  eV     1   --> A              
     e( 91 - 91) =     92.41005  eV     1   --> A              
     e( 92 - 92) =     92.41232  eV     1   --> A              
     e( 93 - 93) =     92.93451  eV     1   --> A              
     e( 94 - 94) =     93.81689  eV     1   --> A              
     e( 95 - 95) =     93.84180  eV     1   --> A              
     e( 96 - 96) =     93.96582  eV     1   --> A              
     e( 97 - 97) =     94.75100  eV     1   --> A              
     e( 98 - 98) =     95.21917  eV     1   --> A              
     e( 99 - 99) =     95.64969  eV     1   --> A              
     e(100 -100) =     95.65100  eV     1   --> A              

 **************************************************************************

 **************************************************************************

                    xk=(   0.00000,  -0.08615,  -0.05275  )

     Band symmetry, C_1 (1)     point group:

     e(  1 -  1) =    -90.38473  eV     1   --> A              
     e(  2 -  2) =    -88.33527  eV     1   --> A              
     e(  3 -  3) =    -50.73934  eV     1   --> A              
     e(  4 -  4) =    -50.72385  eV     1   --> A              
     e(  5 -  5) =    -50.72338  eV     1   --> A              
     e(  6 -  6) =    -48.73859  eV     1   --> A              
     e(  7 -  7) =    -48.72379  eV     1   --> A              
     e(  8 -  8) =    -48.72330  eV     1   --> A              
     e(  9 -  9) =     -5.62554  eV     1   --> A              
     e( 10 - 10) =     -4.19503  eV     1   --> A              
     e( 11 - 11) =      4.01543  eV     1   --> A              
     e( 12 - 12) =      6.97683  eV     1   --> A              
     e( 13 - 13) =      7.00727  eV     1   --> A              
     e( 14 - 14) =      9.59370  eV     1   --> A              
     e( 15 - 15) =      9.68405  eV     1   --> A              
     e( 16 - 16) =      9.82937  eV     1   --> A              
     e( 17 - 17) =     10.15053  eV     1   --> A              
     e( 18 - 18) =     10.33450  eV     1   --> A              
     e( 19 - 19) =     10.40047  eV     1   --> A              
     e( 20 - 20) =     10.69870  eV     1   --> A              
     e( 21 - 21) =     10.79476  eV     1   --> A              
     e( 22 - 22) =     11.64267  eV     1   --> A              
     e( 23 - 23) =     11.82950  eV     1   --> A              
     e( 24 - 24) =     11.85859  eV     1   --> A              
     e( 25 - 25) =     16.16498  eV     1   --> A              
     e( 26 - 26) =     16.17955  eV     1   --> A              
     e( 27 - 27) =     16.30931  eV     1   --> A              
     e( 28 - 28) =     20.23910  eV     1   --> A              
     e( 29 - 29) =     24.61866  eV     1   --> A              
     e( 30 - 30) =     28.35090  eV     1   --> A              
     e( 31 - 31) =     28.63418  eV     1   --> A              
     e( 32 - 32) =     31.49609  eV     1   --> A              
     e( 33 - 33) =     33.33863  eV     1   --> A              
     e( 34 - 34) =     33.33875  eV     1   --> A              
     e( 35 - 35) =     33.86076  eV     1   --> A              
     e( 36 - 36) =     36.09847  eV     1   --> A              
     e( 37 - 37) =     36.65512  eV     1   --> A              
     e( 38 - 38) =     36.65973  eV     1   --> A              
     e( 39 - 39) =     37.23679  eV     1   --> A              
     e( 40 - 40) =     39.43978  eV     1   --> A              
     e( 41 - 41) =     40.26048  eV     1   --> A              
     e( 42 - 42) =     40.99689  eV     1   --> A              
     e( 43 - 43) =     41.00625  eV     1   --> A              
     e( 44 - 44) =     41.77338  eV     1   --> A              
     e( 45 - 45) =     43.52270  eV     1   --> A              
     e( 46 - 46) =     43.77197  eV     1   --> A              
     e( 47 - 47) =     50.15188  eV     1   --> A              
     e( 48 - 48) =     50.73737  eV     1   --> A              
     e( 49 - 49) =     50.74040  eV     1   --> A              
     e( 50 - 50) =     51.79337  eV     1   --> A              
     e( 51 - 51) =     54.71243  eV     1   --> A              
     e( 52 - 52) =     54.73803  eV     1   --> A              
     e( 53 - 53) =     56.05062  eV     1   --> A              
     e( 54 - 54) =     57.71102  eV     1   --> A              
     e( 55 - 55) =     58.81684  eV     1   --> A              
     e( 56 - 56) =     59.11774  eV     1   --> A              
     e( 57 - 57) =     64.81376  eV     1   --> A              
     e( 58 - 58) =     65.84932  eV     1   --> A              
     e( 59 - 60) =     66.73377  eV     2   -->   2 A              
     e( 61 - 61) =     68.14923  eV     1   --> A              
     e( 62 - 62) =     68.25292  eV     1   --> A              
     e( 63 - 63) =     70.95850  eV     1   --> A              
     e( 64 - 64) =     70.95938  eV     1   --> A              
     e( 65 - 65) =     70.96210  eV     1   --> A              
     e( 66 - 66) =     71.90888  eV     1   --> A              
     e( 67 - 67) =     72.38460  eV     1   --> A              
     e( 68 - 68) =     72.39459  eV     1   --> A              
     e( 69 - 69) =     72.53763  eV     1   --> A              
     e( 70 - 70) =     72.59157  eV     1   --> A              
     e( 71 - 71) =     72.83761  eV     1   --> A              
     e( 72 - 72) =     73.75089  eV     1   --> A              
     e( 73 - 73) =     74.19075  eV     1   --> A              
     e( 74 - 74) =     78.49213  eV     1   --> A              
     e( 75 - 75) =     79.12834  eV     1   --> A              
     e( 76 - 76) =     79.89501  eV     1   --> A              
     e( 77 - 77) =     80.66950  eV     1   --> A              
     e( 78 - 78) =     83.82728  eV     1   --> A              
     e( 79 - 79) =     83.87949  eV     1   --> A              
     e( 80 - 80) =     87.34112  eV     1   --> A              
     e( 81 - 81) =     87.60845  eV     1   --> A              
     e( 82 - 82) =     87.63838  eV     1   --> A              
     e( 83 - 83) =     87.64142  eV     1   --> A              
     e( 84 - 84) =     89.41531  eV     1   --> A              
     e( 85 - 85) =     89.84417  eV     1   --> A              
     e( 86 - 86) =     89.89798  eV     1   --> A              
     e( 87 - 87) =     90.42955  eV     1   --> A              
     e( 88 - 88) =     90.72057  eV     1   --> A              
     e( 89 - 89) =     91.84126  eV     1   --> A              
     e( 90 - 90) =     91.99318  eV     1   --> A              
     e( 91 - 91) =     91.99385  eV     1   --> A              
     e( 92 - 92) =     92.12779  eV     1   --> A              
     e( 93 - 93) =     92.70090  eV     1   --> A              
     e( 94 - 94) =     93.87423  eV     1   --> A              
     e( 95 - 95) =     93.88731  eV     1   --> A              
     e( 96 - 96) =     94.20002  eV     1   --> A              
     e( 97 - 97) =     95.21313  eV     1   --> A              
     e( 98 - 98) =     95.38929  eV     1   --> A              
     e( 99 - 99) =     96.02028  eV     1   --> A              
     e(100 -100) =     96.02270  eV     1   --> A              

 **************************************************************************

 **************************************************************************

                    xk=(   0.00000,  -0.10768,  -0.06594  )

     Band symmetry, C_1 (1)     point group:

     e(  1 -  1) =    -90.38478  eV     1   --> A              
     e(  2 -  2) =    -88.33538  eV     1   --> A              
     e(  3 -  3) =    -50.73941  eV     1   --> A              
     e(  4 -  4) =    -50.72420  eV     1   --> A              
     e(  5 -  5) =    -50.72354  eV     1   --> A              
     e(  6 -  6) =    -48.73866  eV     1   --> A              
     e(  7 -  7) =    -48.72422  eV     1   --> A              
     e(  8 -  8) =    -48.72343  eV     1   --> A              
     e(  9 -  9) =     -5.61457  eV     1   --> A              
     e( 10 - 10) =     -4.19759  eV     1   --> A              
     e( 11 - 11) =      4.05139  eV     1   --> A              
     e( 12 - 12) =      6.96693  eV     1   --> A              
     e( 13 - 13) =      7.01403  eV     1   --> A              
     e( 14 - 14) =      9.49441  eV     1   --> A              
     e( 15 - 15) =      9.64064  eV     1   --> A              
     e( 16 - 16) =      9.80193  eV     1   --> A              
     e( 17 - 17) =     10.08514  eV     1   --> A              
     e( 18 - 18) =     10.32616  eV     1   --> A              
     e( 19 - 19) =     10.41352  eV     1   --> A              
     e( 20 - 20) =     10.72902  eV     1   --> A              
     e( 21 - 21) =     10.84644  eV     1   --> A              
     e( 22 - 22) =     11.63676  eV     1   --> A              
     e( 23 - 23) =     11.83878  eV     1   --> A              
     e( 24 - 24) =     11.88211  eV     1   --> A              
     e( 25 - 25) =     16.14541  eV     1   --> A              
     e( 26 - 26) =     16.16660  eV     1   --> A              
     e( 27 - 27) =     16.39861  eV     1   --> A              
     e( 28 - 28) =     20.31996  eV     1   --> A              
     e( 29 - 29) =     24.60020  eV     1   --> A              
     e( 30 - 30) =     28.24188  eV     1   --> A              
     e( 31 - 31) =     28.67391  eV     1   --> A              
     e( 32 - 32) =     31.21699  eV     1   --> A              
     e( 33 - 33) =     33.29594  eV     1   --> A              
     e( 34 - 34) =     33.29620  eV     1   --> A              
     e( 35 - 35) =     33.99771  eV     1   --> A              
     e( 36 - 36) =     36.25192  eV     1   --> A              
     e( 37 - 37) =     36.54671  eV     1   --> A              
     e( 38 - 38) =     36.55032  eV     1   --> A              
     e( 39 - 39) =     37.41684  eV     1   --> A              
     e( 40 - 40) =     39.16178  eV     1   --> A              
     e( 41 - 41) =     40.27180  eV     1   --> A              
     e( 42 - 42) =     41.21294  eV     1   --> A              
     e( 43 - 43) =     41.21974  eV     1   --> A              
     e( 44 - 44) =     41.91812  eV     1   --> A              
     e( 45 - 45) =     43.57618  eV     1   --> A              
     e( 46 - 46) =     43.95099  eV     1   --> A              
     e( 47 - 47) =     49.96499  eV     1   --> A              
     e( 48 - 48) =     50.73358  eV     1   --> A              
     e( 49 - 49) =     50.73660  eV     1   --> A              
     e( 50 - 50) =     52.02006  eV     1   --> A              
     e( 51 - 51) =     54.65391  eV     1   --> A              
     e( 52 - 52) =     54.68589  eV     1   --> A              
     e( 53 - 53) =     55.89809  eV     1   --> A              
     e( 54 - 54) =     57.92493  eV     1   --> A              
     e( 55 - 55) =     58.73004  eV     1   --> A              
     e( 56 - 56) =     59.21266  eV     1   --> A              
     e( 57 - 57) =     64.46351  eV     1   --> A              
     e( 58 - 58) =     65.92103  eV     1   --> A              
     e( 59 - 59) =     66.22667  eV     1   --> A              
     e( 60 - 60) =     66.23010  eV     1   --> A              
     e( 61 - 61) =     68.18022  eV     1   --> A              
     e( 62 - 62) =     68.44786  eV     1   --> A              
     e( 63 - 63) =     70.96178  eV     1   --> A              
     e( 64 - 64) =     70.97718  eV     1   --> A              
     e( 65 - 65) =     70.97745  eV     1   --> A              
     e( 66 - 66) =     71.51308  eV     1   --> A              
     e( 67 - 67) =     72.23170  eV     1   --> A              
     e( 68 - 68) =     72.65296  eV     1   --> A              
     e( 69 - 69) =     72.90662  eV     1   --> A              
     e( 70 - 70) =     72.96758  eV     1   --> A              
     e( 71 - 71) =     72.97602  eV     1   --> A              
     e( 72 - 72) =     73.86890  eV     1   --> A              
     e( 73 - 73) =     74.20471  eV     1   --> A              
     e( 74 - 74) =     78.67360  eV     1   --> A              
     e( 75 - 75) =     79.02114  eV     1   --> A              
     e( 76 - 76) =     79.84057  eV     1   --> A              
     e( 77 - 77) =     80.62526  eV     1   --> A              
     e( 78 - 78) =     84.27650  eV     1   --> A              
     e( 79 - 79) =     84.34525  eV     1   --> A              
     e( 80 - 80) =     86.70546  eV     1   --> A              
     e( 81 - 81) =     87.37109  eV     1   --> A              
     e( 82 - 82) =     87.40306  eV     1   --> A              
     e( 83 - 83) =     87.40427  eV     1   --> A              
     e( 84 - 84) =     89.16652  eV     1   --> A              
     e( 85 - 85) =     89.41141  eV     1   --> A              
     e( 86 - 86) =     89.48378  eV     1   --> A              
     e( 87 - 87) =     90.19780  eV     1   --> A              
     e( 88 - 88) =     90.48289  eV     1   --> A              
     e( 89 - 89) =     91.30693  eV     1   --> A              
     e( 90 - 90) =     91.58210  eV     1   --> A              
     e( 91 - 91) =     91.58340  eV     1   --> A              
     e( 92 - 92) =     92.35730  eV     1   --> A              
     e( 93 - 93) =     92.43382  eV     1   --> A              
     e( 94 - 94) =     93.91812  eV     1   --> A              
     e( 95 - 95) =     93.92748  eV     1   --> A              
     e( 96 - 96) =     94.48603  eV     1   --> A              
     e( 97 - 97) =     95.48243  eV     1   --> A              
     e( 98 - 98) =     95.73324  eV     1   --> A              
     e( 99 - 99) =     96.42141  eV     1   --> A              
     e(100 -100) =     96.42479  eV     1   --> A              

 **************************************************************************

 **************************************************************************

                    xk=(   0.00000,  -0.12922,  -0.07913  )

     Band symmetry, C_1 (1)     point group:

     e(  1 -  1) =    -90.38483  eV     1   --> A              
     e(  2 -  2) =    -88.33550  eV     1   --> A              
     e(  3 -  3) =    -50.73949  eV     1   --> A              
     e(  4 -  4) =    -50.72466  eV     1   --> A              
     e(  5 -  5) =    -50.72370  eV     1   --> A              
     e(  6 -  6) =    -48.73874  eV     1   --> A              
     e(  7 -  7) =    -48.72475  eV     1   --> A              
     e(  8 -  8) =    -48.72358  eV     1   --> A              
     e(  9 -  9) =     -5.60111  eV     1   --> A              
     e( 10 - 10) =     -4.20064  eV     1   --> A              
     e( 11 - 11) =      4.09493  eV     1   --> A              
     e( 12 - 12) =      6.95512  eV     1   --> A              
     e( 13 - 13) =      7.02215  eV     1   --> A              
     e( 14 - 14) =      9.37596  eV     1   --> A              
     e( 15 - 15) =      9.59038  eV     1   --> A              
     e( 16 - 16) =      9.76046  eV     1   --> A              
     e( 17 - 17) =     10.03217  eV     1   --> A              
     e( 18 - 18) =     10.32084  eV     1   --> A              
     e( 19 - 19) =     10.42694  eV     1   --> A              
     e( 20 - 20) =     10.75947  eV     1   --> A              
     e( 21 - 21) =     10.89453  eV     1   --> A              
     e( 22 - 22) =     11.62939  eV     1   --> A              
     e( 23 - 23) =     11.85016  eV     1   --> A              
     e( 24 - 24) =     11.90951  eV     1   --> A              
     e( 25 - 25) =     16.12366  eV     1   --> A              
     e( 26 - 26) =     16.15145  eV     1   --> A              
     e( 27 - 27) =     16.50377  eV     1   --> A              
     e( 28 - 28) =     20.41560  eV     1   --> A              
     e( 29 - 29) =     24.57781  eV     1   --> A              
     e( 30 - 30) =     28.11699  eV     1   --> A              
     e( 31 - 31) =     28.72180  eV     1   --> A              
     e( 32 - 32) =     30.92613  eV     1   --> A              
     e( 33 - 33) =     33.23995  eV     1   --> A              
     e( 34 - 34) =     33.24043  eV     1   --> A              
     e( 35 - 35) =     34.11934  eV     1   --> A              
     e( 36 - 36) =     36.40677  eV     1   --> A              
     e( 37 - 37) =     36.44030  eV     1   --> A              
     e( 38 - 38) =     36.44637  eV     1   --> A              
     e( 39 - 39) =     37.63283  eV     1   --> A              
     e( 40 - 40) =     38.89849  eV     1   --> A              
     e( 41 - 41) =     40.28412  eV     1   --> A              
     e( 42 - 42) =     41.45727  eV     1   --> A              
     e( 43 - 43) =     41.46259  eV     1   --> A              
     e( 44 - 44) =     42.04856  eV     1   --> A              
     e( 45 - 45) =     43.64065  eV     1   --> A              
     e( 46 - 46) =     44.15303  eV     1   --> A              
     e( 47 - 47) =     49.77391  eV     1   --> A              
     e( 48 - 48) =     50.72896  eV     1   --> A              
     e( 49 - 49) =     50.73197  eV     1   --> A              
     e( 50 - 50) =     52.26044  eV     1   --> A              
     e( 51 - 51) =     54.59102  eV     1   --> A              
     e( 52 - 52) =     54.62339  eV     1   --> A              
     e( 53 - 53) =     55.75648  eV     1   --> A              
     e( 54 - 54) =     58.11573  eV     1   --> A              
     e( 55 - 55) =     58.62840  eV     1   --> A              
     e( 56 - 56) =     59.34648  eV     1   --> A              
     e( 57 - 57) =     64.09804  eV     1   --> A              
     e( 58 - 58) =     65.70313  eV     1   --> A              
     e( 59 - 59) =     65.71081  eV     1   --> A              
     e( 60 - 60) =     65.99880  eV     1   --> A              
     e( 61 - 61) =     68.21808  eV     1   --> A              
     e( 62 - 62) =     68.62940  eV     1   --> A              
     e( 63 - 63) =     70.95956  eV     1   --> A              
     e( 64 - 64) =     70.99570  eV     1   --> A              
     e( 65 - 65) =     70.99973  eV     1   --> A              
     e( 66 - 66) =     71.08715  eV     1   --> A              
     e( 67 - 67) =     71.94063  eV     1   --> A              
     e( 68 - 68) =     72.74463  eV     1   --> A              
     e( 69 - 69) =     72.98145  eV     1   --> A              
     e( 70 - 70) =     73.56139  eV     1   --> A              
     e( 71 - 71) =     73.56387  eV     1   --> A              
     e( 72 - 72) =     74.01484  eV     1   --> A              
     e( 73 - 73) =     74.21991  eV     1   --> A              
     e( 74 - 74) =     78.22673  eV     1   --> A              
     e( 75 - 75) =     79.37009  eV     1   --> A              
     e( 76 - 76) =     80.02213  eV     1   --> A              
     e( 77 - 77) =     80.57738  eV     1   --> A              
     e( 78 - 78) =     84.62949  eV     1   --> A              
     e( 79 - 79) =     84.90985  eV     1   --> A              
     e( 80 - 80) =     86.07006  eV     1   --> A              
     e( 81 - 81) =     87.07051  eV     1   --> A              
     e( 82 - 82) =     87.07642  eV     1   --> A              
     e( 83 - 83) =     87.07715  eV     1   --> A              
     e( 84 - 84) =     88.87621  eV     1   --> A              
     e( 85 - 85) =     88.99693  eV     1   --> A              
     e( 86 - 86) =     89.11732  eV     1   --> A              
     e( 87 - 87) =     89.95717  eV     1   --> A              
     e( 88 - 88) =     90.20629  eV     1   --> A              
     e( 89 - 89) =     90.76716  eV     1   --> A              
     e( 90 - 90) =     91.18291  eV     1   --> A              
     e( 91 - 91) =     91.18384  eV     1   --> A              
     e( 92 - 92) =     92.13639  eV     1   --> A              
     e( 93 - 93) =     92.65861  eV     1   --> A              
     e( 94 - 94) =     93.95694  eV     1   --> A              
     e( 95 - 95) =     93.96524  eV     1   --> A              
     e( 96 - 96) =     94.80700  eV     1   --> A              
     e( 97 - 97) =     95.61576  eV     1   --> A              
     e( 98 - 98) =     96.16841  eV     1   --> A              
     e( 99 - 99) =     96.81197  eV     1   --> A              
     e(100 -100) =     96.81706  eV     1   --> A              

 **************************************************************************

 **************************************************************************

                    xk=(   0.00000,  -0.15076,  -0.09232  )

     Band symmetry, C_1 (1)     point group:

     e(  1 -  1) =    -90.38489  eV     1   --> A              
     e(  2 -  2) =    -88.33563  eV     1   --> A              
     e(  3 -  3) =    -50.73958  eV     1   --> A              
     e(  4 -  4) =    -50.72520  eV     1   --> A              
     e(  5 -  5) =    -50.72388  eV     1   --> A              
     e(  6 -  6) =    -48.73883  eV     1   --> A              
     e(  7 -  7) =    -48.72536  eV     1   --> A              
     e(  8 -  8) =    -48.72376  eV     1   --> A              
     e(  9 -  9) =     -5.58513  eV     1   --> A              
     e( 10 - 10) =     -4.20411  eV     1   --> A              
     e( 11 - 11) =      4.14579  eV     1   --> A              
     e( 12 - 12) =      6.94156  eV     1   --> A              
     e( 13 - 13) =      7.03155  eV     1   --> A              
     e( 14 - 14) =      9.24061  eV     1   --> A              
     e( 15 - 15) =      9.53467  eV     1   --> A              
     e( 16 - 16) =      9.70221  eV     1   --> A              
     e( 17 - 17) =      9.99510  eV     1   --> A              
     e( 18 - 18) =     10.31866  eV     1   --> A              
     e( 19 - 19) =     10.44045  eV     1   --> A              
     e( 20 - 20) =     10.78914  eV     1   --> A              
     e( 21 - 21) =     10.93834  eV     1   --> A              
     e( 22 - 22) =     11.62068  eV     1   --> A              
     e( 23 - 23) =     11.86352  eV     1   --> A              
     e( 24 - 24) =     11.94002  eV     1   --> A              
     e( 25 - 25) =     16.10074  eV     1   --> A              
     e( 26 - 26) =     16.13449  eV     1   --> A              
     e( 27 - 27) =     16.62289  eV     1   --> A              
     e( 28 - 28) =     20.52436  eV     1   --> A              
     e( 29 - 29) =     24.55166  eV     1   --> A              
     e( 30 - 30) =     27.97985  eV     1   --> A              
     e( 31 - 31) =     28.77745  eV     1   --> A              
     e( 32 - 32) =     30.62830  eV     1   --> A              
     e( 33 - 33) =     33.16899  eV     1   --> A              
     e( 34 - 34) =     33.16974  eV     1   --> A              
     e( 35 - 35) =     34.22443  eV     1   --> A              
     e( 36 - 36) =     36.33233  eV     1   --> A              
     e( 37 - 37) =     36.33717  eV     1   --> A              
     e( 38 - 38) =     36.57004  eV     1   --> A              
     e( 39 - 39) =     37.88142  eV     1   --> A              
     e( 40 - 40) =     38.67353  eV     1   --> A              
     e( 41 - 41) =     40.29848  eV     1   --> A              
     e( 42 - 42) =     41.72254  eV     1   --> A              
     e( 43 - 43) =     41.72801  eV     1   --> A              
     e( 44 - 44) =     42.16858  eV     1   --> A              
     e( 45 - 45) =     43.71568  eV     1   --> A              
     e( 46 - 46) =     44.36918  eV     1   --> A              
     e( 47 - 47) =     49.57855  eV     1   --> A              
     e( 48 - 48) =     50.72360  eV     1   --> A              
     e( 49 - 49) =     50.72660  eV     1   --> A              
     e( 50 - 50) =     52.51498  eV     1   --> A              
     e( 51 - 51) =     54.52814  eV     1   --> A              
     e( 52 - 52) =     54.55129  eV     1   --> A              
     e( 53 - 53) =     55.62407  eV     1   --> A              
     e( 54 - 54) =     58.27454  eV     1   --> A              
     e( 55 - 55) =     58.51357  eV     1   --> A              
     e( 56 - 56) =     59.52517  eV     1   --> A              
     e( 57 - 57) =     63.72635  eV     1   --> A              
     e( 58 - 58) =     65.19048  eV     1   --> A              
     e( 59 - 59) =     65.19454  eV     1   --> A              
     e( 60 - 60) =     66.03680  eV     1   --> A              
     e( 61 - 61) =     68.26280  eV     1   --> A              
     e( 62 - 62) =     68.79421  eV     1   --> A              
     e( 63 - 63) =     70.65306  eV     1   --> A              
     e( 64 - 64) =     70.95441  eV     1   --> A              
     e( 65 - 65) =     71.02612  eV     1   --> A              
     e( 66 - 66) =     71.02762  eV     1   --> A              
     e( 67 - 67) =     71.65862  eV     1   --> A              
     e( 68 - 68) =     72.82682  eV     1   --> A              
     e( 69 - 69) =     73.05537  eV     1   --> A              
     e( 70 - 70) =     74.15821  eV     1   --> A              
     e( 71 - 71) =     74.16899  eV     1   --> A              
     e( 72 - 72) =     74.19852  eV     1   --> A              
     e( 73 - 73) =     74.23524  eV     1   --> A              
     e( 74 - 74) =     77.80769  eV     1   --> A              
     e( 75 - 75) =     79.42998  eV     1   --> A              
     e( 76 - 76) =     80.52337  eV     1   --> A              
     e( 77 - 77) =     80.54008  eV     1   --> A              
     e( 78 - 78) =     84.82487  eV     1   --> A              
     e( 79 - 79) =     85.50915  eV     1   --> A              
     e( 80 - 80) =     85.54360  eV     1   --> A              
     e( 81 - 81) =     86.64875  eV     1   --> A              
     e( 82 - 82) =     86.64995  eV     1   --> A              
     e( 83 - 83) =     86.71001  eV     1   --> A              
     e( 84 - 84) =     88.56091  eV     1   --> A              
     e( 85 - 85) =     88.62701  eV     1   --> A              
     e( 86 - 86) =     88.81487  eV     1   --> A              
     e( 87 - 87) =     89.71143  eV     1   --> A              
     e( 88 - 88) =     89.94347  eV     1   --> A              
     e( 89 - 89) =     90.22715  eV     1   --> A              
     e( 90 - 90) =     90.79881  eV     1   --> A              
     e( 91 - 91) =     90.79931  eV     1   --> A              
     e( 92 - 92) =     91.83887  eV     1   --> A              
     e( 93 - 93) =     92.96455  eV     1   --> A              
     e( 94 - 94) =     93.99341  eV     1   --> A              
     e( 95 - 95) =     94.00216  eV     1   --> A              
     e( 96 - 96) =     95.15258  eV     1   --> A              
     e( 97 - 97) =     95.70445  eV     1   --> A              
     e( 98 - 98) =     96.58606  eV     1   --> A              
     e( 99 - 99) =     96.72887  eV     1   --> A              
     e(100 -100) =     96.73273  eV     1   --> A              

 **************************************************************************

 **************************************************************************

                    xk=(   0.00000,  -0.17229,  -0.10551  )

     Band symmetry, C_1 (1)     point group:

     e(  1 -  1) =    -90.38495  eV     1   --> A              
     e(  2 -  2) =    -88.33578  eV     1   --> A              
     e(  3 -  3) =    -50.73968  eV     1   --> A              
     e(  4 -  4) =    -50.72582  eV     1   --> A              
     e(  5 -  5) =    -50.72407  eV     1   --> A              
     e(  6 -  6) =    -48.73893  eV     1   --> A              
     e(  7 -  7) =    -48.72606  eV     1   --> A              
     e(  8 -  8) =    -48.72397  eV     1   --> A              
     e(  9 -  9) =     -5.56660  eV     1   --> A              
     e( 10 - 10) =     -4.20796  eV     1   --> A              
     e( 11 - 11) =      4.20368  eV     1   --> A              
     e( 12 - 12) =      6.92648  eV     1   --> A              
     e( 13 - 13) =      7.04213  eV     1   --> A              
     e( 14 - 14) =      9.09056  eV     1   --> A              
     e( 15 - 15) =      9.47486  eV     1   --> A              
     e( 16 - 16) =      9.62964  eV     1   --> A              
     e( 17 - 17) =      9.97183  eV     1   --> A              
     e( 18 - 18) =     10.31940  eV     1   --> A              
     e( 19 - 19) =     10.45394  eV     1   --> A              
     e( 20 - 20) =     10.81751  eV     1   --> A              
     e( 21 - 21) =     10.97752  eV     1   --> A              
     e( 22 - 22) =     11.61084  eV     1   --> A              
     e( 23 - 23) =     11.87863  eV     1   --> A              
     e( 24 - 24) =     11.97282  eV     1   --> A              
     e( 25 - 25) =     16.07763  eV     1   --> A              
     e( 26 - 26) =     16.11615  eV     1   --> A              
     e( 27 - 27) =     16.75403  eV     1   --> A              
     e( 28 - 28) =     20.64443  eV     1   --> A              
     e( 29 - 29) =     24.52196  eV     1   --> A              
     e( 30 - 30) =     27.83394  eV     1   --> A              
     e( 31 - 31) =     28.84040  eV     1   --> A              
     e( 32 - 32) =     30.32667  eV     1   --> A              
     e( 33 - 33) =     33.08169  eV     1   --> A              
     e( 34 - 34) =     33.08277  eV     1   --> A              
     e( 35 - 35) =     34.31392  eV     1   --> A              
     e( 36 - 36) =     36.24319  eV     1   --> A              
     e( 37 - 37) =     36.24692  eV     1   --> A              
     e( 38 - 38) =     36.67320  eV     1   --> A              
     e( 39 - 39) =     38.15877  eV     1   --> A              
     e( 40 - 40) =     38.52280  eV     1   --> A              
     e( 41 - 41) =     40.31581  eV     1   --> A              
     e( 42 - 42) =     42.00074  eV     1   --> A              
     e( 43 - 43) =     42.01040  eV     1   --> A              
     e( 44 - 44) =     42.28467  eV     1   --> A              
     e( 45 - 45) =     43.80077  eV     1   --> A              
     e( 46 - 46) =     44.59119  eV     1   --> A              
     e( 47 - 47) =     49.37883  eV     1   --> A              
     e( 48 - 48) =     50.71759  eV     1   --> A              
     e( 49 - 49) =     50.72057  eV     1   --> A              
     e( 50 - 50) =     52.78420  eV     1   --> A              
     e( 51 - 51) =     54.46956  eV     1   --> A              
     e( 52 - 52) =     54.47047  eV     1   --> A              
     e( 53 - 53) =     55.49913  eV     1   --> A              
     e( 54 - 54) =     58.38689  eV     1   --> A              
     e( 55 - 55) =     58.39914  eV     1   --> A              
     e( 56 - 56) =     59.74706  eV     1   --> A              
     e( 57 - 57) =     63.35616  eV     1   --> A              
     e( 58 - 58) =     64.67949  eV     1   --> A              
     e( 59 - 59) =     64.68291  eV     1   --> A              
     e( 60 - 60) =     66.03353  eV     1   --> A              
     e( 61 - 61) =     68.31435  eV     1   --> A              
     e( 62 - 62) =     68.94255  eV     1   --> A              
     e( 63 - 63) =     70.24507  eV     1   --> A              
     e( 64 - 64) =     70.94510  eV     1   --> A              
     e( 65 - 65) =     71.05629  eV     1   --> A              
     e( 66 - 66) =     71.05671  eV     1   --> A              
     e( 67 - 67) =     71.39828  eV     1   --> A              
     e( 68 - 68) =     72.88169  eV     1   --> A              
     e( 69 - 69) =     73.12955  eV     1   --> A              
     e( 70 - 70) =     74.24857  eV     1   --> A              
     e( 71 - 71) =     74.37986  eV     1   --> A              
     e( 72 - 72) =     74.78424  eV     1   --> A              
     e( 73 - 73) =     74.78707  eV     1   --> A              
     e( 74 - 74) =     77.43651  eV     1   --> A              
     e( 75 - 75) =     79.42210  eV     1   --> A              
     e( 76 - 76) =     80.46156  eV     1   --> A              
     e( 77 - 77) =     81.16567  eV     1   --> A              
     e( 78 - 78) =     84.48574  eV     1   --> A              
     e( 79 - 79) =     85.49595  eV     1   --> A              
     e( 80 - 80) =     86.06448  eV     1   --> A              
     e( 81 - 81) =     86.12933  eV     1   --> A              
     e( 82 - 82) =     86.20155  eV     1   --> A              
     e( 83 - 83) =     86.29784  eV     1   --> A              
     e( 84 - 84) =     88.25688  eV     1   --> A              
     e( 85 - 85) =     88.30317  eV     1   --> A              
     e( 86 - 86) =     88.54977  eV     1   --> A              
     e( 87 - 87) =     89.47207  eV     1   --> A              
     e( 88 - 88) =     89.68972  eV     1   --> A              
     e( 89 - 89) =     89.69957  eV     1   --> A              
     e( 90 - 90) =     90.43210  eV     1   --> A              
     e( 91 - 91) =     90.43225  eV     1   --> A              
     e( 92 - 92) =     91.55267  eV     1   --> A              
     e( 93 - 93) =     93.26054  eV     1   --> A              
     e( 94 - 94) =     94.02844  eV     1   --> A              
     e( 95 - 95) =     94.03916  eV     1   --> A              
     e( 96 - 96) =     95.51416  eV     1   --> A              
     e( 97 - 97) =     95.74534  eV     1   --> A              
     e( 98 - 98) =     96.41069  eV     1   --> A              
     e( 99 - 99) =     96.41720  eV     1   --> A              
     e(100 -100) =     96.98141  eV     1   --> A              

 **************************************************************************

 **************************************************************************

                    xk=(   0.00000,  -0.19383,  -0.11870  )

     Band symmetry, C_1 (1)     point group:

     e(  1 -  1) =    -90.38502  eV     1   --> A              
     e(  2 -  2) =    -88.33593  eV     1   --> A              
     e(  3 -  3) =    -50.73980  eV     1   --> A              
     e(  4 -  4) =    -50.72652  eV     1   --> A              
     e(  5 -  5) =    -50.72429  eV     1   --> A              
     e(  6 -  6) =    -48.73905  eV     1   --> A              
     e(  7 -  7) =    -48.72683  eV     1   --> A              
     e(  8 -  8) =    -48.72420  eV     1   --> A              
     e(  9 -  9) =     -5.54549  eV     1   --> A              
     e( 10 - 10) =     -4.21211  eV     1   --> A              
     e( 11 - 11) =      4.26825  eV     1   --> A              
     e( 12 - 12) =      6.91012  eV     1   --> A              
     e( 13 - 13) =      7.05377  eV     1   --> A              
     e( 14 - 14) =      8.92794  eV     1   --> A              
     e( 15 - 15) =      9.41222  eV     1   --> A              
     e( 16 - 16) =      9.54747  eV     1   --> A              
     e( 17 - 17) =      9.95777  eV     1   --> A              
     e( 18 - 18) =     10.32274  eV     1   --> A              
     e( 19 - 19) =     10.46740  eV     1   --> A              
     e( 20 - 20) =     10.84436  eV     1   --> A              
     e( 21 - 21) =     11.01185  eV     1   --> A              
     e( 22 - 22) =     11.60017  eV     1   --> A              
     e( 23 - 23) =     11.89518  eV     1   --> A              
     e( 24 - 24) =     12.00701  eV     1   --> A              
     e( 25 - 25) =     16.05526  eV     1   --> A              
     e( 26 - 26) =     16.09693  eV     1   --> A              
     e( 27 - 27) =     16.89533  eV     1   --> A              
     e( 28 - 28) =     20.77390  eV     1   --> A              
     e( 29 - 29) =     24.48903  eV     1   --> A              
     e( 30 - 30) =     27.68249  eV     1   --> A              
     e( 31 - 31) =     28.91016  eV     1   --> A              
     e( 32 - 32) =     30.02350  eV     1   --> A              
     e( 33 - 33) =     32.97723  eV     1   --> A              
     e( 34 - 34) =     32.97869  eV     1   --> A              
     e( 35 - 35) =     34.38976  eV     1   --> A              
     e( 36 - 36) =     36.17086  eV     1   --> A              
     e( 37 - 37) =     36.17397  eV     1   --> A              
     e( 38 - 38) =     36.68484  eV     1   --> A              
     e( 39 - 39) =     38.46081  eV     1   --> A              
     e( 40 - 40) =     38.48951  eV     1   --> A              
     e( 41 - 41) =     40.33699  eV     1   --> A              
     e( 42 - 42) =     42.27008  eV     1   --> A              
     e( 43 - 43) =     42.30514  eV     1   --> A              
     e( 44 - 44) =     42.41762  eV     1   --> A              
     e( 45 - 45) =     43.89546  eV     1   --> A              
     e( 46 - 46) =     44.81193  eV     1   --> A              
     e( 47 - 47) =     49.17486  eV     1   --> A              
     e( 48 - 48) =     50.71112  eV     1   --> A              
     e( 49 - 49) =     50.71409  eV     1   --> A              
     e( 50 - 50) =     53.06855  eV     1   --> A              
     e( 51 - 51) =     54.38192  eV     1   --> A              
     e( 52 - 52) =     54.41931  eV     1   --> A              
     e( 53 - 53) =     55.38015  eV     1   --> A              
     e( 54 - 54) =     58.24929  eV     1   --> A              
     e( 55 - 55) =     58.49407  eV     1   --> A              
     e( 56 - 56) =     60.00147  eV     1   --> A              
     e( 57 - 57) =     62.99617  eV     1   --> A              
     e( 58 - 58) =     64.17608  eV     1   --> A              
     e( 59 - 59) =     64.17929  eV     1   --> A              
     e( 60 - 60) =     65.96753  eV     1   --> A              
     e( 61 - 61) =     68.37272  eV     1   --> A              
     e( 62 - 62) =     69.07661  eV     1   --> A              
     e( 63 - 63) =     69.85979  eV     1   --> A              
     e( 64 - 64) =     70.93025  eV     1   --> A              
     e( 65 - 65) =     71.08815  eV     1   --> A              
     e( 66 - 66) =     71.09018  eV     1   --> A              
     e( 67 - 67) =     71.18517  eV     1   --> A              
     e( 68 - 68) =     72.88800  eV     1   --> A              
     e( 69 - 69) =     73.20025  eV     1   --> A              
     e( 70 - 70) =     74.25890  eV     1   --> A              
     e( 71 - 71) =     74.59613  eV     1   --> A              
     e( 72 - 72) =     75.40256  eV     1   --> A              
     e( 73 - 73) =     75.40470  eV     1   --> A              
     e( 74 - 74) =     77.13408  eV     1   --> A              
     e( 75 - 75) =     79.41792  eV     1   --> A              
     e( 76 - 76) =     80.39032  eV     1   --> A              
     e( 77 - 77) =     81.82061  eV     1   --> A              
     e( 78 - 78) =     83.87231  eV     1   --> A              
     e( 79 - 79) =     85.52790  eV     1   --> A              
     e( 80 - 80) =     85.53213  eV     1   --> A              
     e( 81 - 81) =     85.66808  eV     1   --> A              
     e( 82 - 82) =     85.85193  eV     1   --> A              
     e( 83 - 83) =     86.78121  eV     1   --> A              
     e( 84 - 84) =     87.97199  eV     1   --> A              
     e( 85 - 85) =     88.01069  eV     1   --> A              
     e( 86 - 86) =     88.31448  eV     1   --> A              
     e( 87 - 87) =     89.15659  eV     1   --> A              
     e( 88 - 88) =     89.25413  eV     1   --> A              
     e( 89 - 89) =     89.46159  eV     1   --> A              
     e( 90 - 91) =     90.08475  eV     2   -->   2 A              
     e( 92 - 92) =     91.29461  eV     1   --> A              
     e( 93 - 93) =     93.53576  eV     1   --> A              
     e( 94 - 94) =     94.06212  eV     1   --> A              
     e( 95 - 95) =     94.07733  eV     1   --> A              
     e( 96 - 96) =     95.73488  eV     1   --> A              
     e( 97 - 97) =     95.87090  eV     1   --> A              
     e( 98 - 98) =     96.11163  eV     1   --> A              
     e( 99 - 99) =     96.13751  eV     1   --> A              
     e(100 -100) =     97.35464  eV     1   --> A              

 **************************************************************************

 **************************************************************************

                    xk=(   0.00000,  -0.21537,  -0.13188  )

     Band symmetry, C_1 (1)     point group:

     e(  1 -  1) =    -90.38508  eV     1   --> A              
     e(  2 -  2) =    -88.33608  eV     1   --> A              
     e(  3 -  3) =    -50.73993  eV     1   --> A              
     e(  4 -  4) =    -50.72729  eV     1   --> A              
     e(  5 -  5) =    -50.72452  eV     1   --> A              
     e(  6 -  6) =    -48.73918  eV     1   --> A              
     e(  7 -  7) =    -48.72769  eV     1   --> A              
     e(  8 -  8) =    -48.72445  eV     1   --> A              
     e(  9 -  9) =     -5.52178  eV     1   --> A              
     e( 10 - 10) =     -4.21651  eV     1   --> A              
     e( 11 - 11) =      4.33909  eV     1   --> A              
     e( 12 - 12) =      6.89278  eV     1   --> A              
     e( 13 - 13) =      7.06632  eV     1   --> A              
     e( 14 - 14) =      8.75473  eV     1   --> A              
     e( 15 - 15) =      9.34787  eV     1   --> A              
     e( 16 - 16) =      9.45943  eV     1   --> A              
     e( 17 - 17) =      9.94928  eV     1   --> A              
     e( 18 - 18) =     10.32828  eV     1   --> A              
     e( 19 - 19) =     10.48083  eV     1   --> A              
     e( 20 - 20) =     10.86964  eV     1   --> A              
     e( 21 - 21) =     11.04124  eV     1   --> A              
     e( 22 - 22) =     11.58900  eV     1   --> A              
     e( 23 - 23) =     11.91284  eV     1   --> A              
     e( 24 - 24) =     12.04171  eV     1   --> A              
     e( 25 - 25) =     16.03447  eV     1   --> A              
     e( 26 - 26) =     16.07733  eV     1   --> A              
     e( 27 - 27) =     17.04499  eV     1   --> A              
     e( 28 - 28) =     20.91072  eV     1   --> A              
     e( 29 - 29) =     24.45332  eV     1   --> A              
     e( 30 - 30) =     27.52841  eV     1   --> A              
     e( 31 - 31) =     28.98617  eV     1   --> A              
     e( 32 - 32) =     29.72054  eV     1   --> A              
     e( 33 - 33) =     32.85562  eV     1   --> A              
     e( 34 - 34) =     32.85748  eV     1   --> A              
     e( 35 - 35) =     34.45426  eV     1   --> A              
     e( 36 - 36) =     36.11844  eV     1   --> A              
     e( 37 - 37) =     36.12113  eV     1   --> A              
     e( 38 - 38) =     36.58495  eV     1   --> A              
     e( 39 - 39) =     38.59226  eV     1   --> A              
     e( 40 - 40) =     38.78392  eV     1   --> A              
     e( 41 - 41) =     40.36282  eV     1   --> A              
     e( 42 - 42) =     42.44800  eV     1   --> A              
     e( 43 - 43) =     42.60823  eV     1   --> A              
     e( 44 - 44) =     42.64893  eV     1   --> A              
     e( 45 - 45) =     43.99933  eV     1   --> A              
     e( 46 - 46) =     45.02554  eV     1   --> A              
     e( 47 - 47) =     48.96702  eV     1   --> A              
     e( 48 - 48) =     50.70450  eV     1   --> A              
     e( 49 - 49) =     50.70745  eV     1   --> A              
     e( 50 - 50) =     53.36823  eV     1   --> A              
     e( 51 - 51) =     54.28677  eV     1   --> A              
     e( 52 - 52) =     54.38085  eV     1   --> A              
     e( 53 - 53) =     55.26606  eV     1   --> A              
     e( 54 - 54) =     58.10122  eV     1   --> A              
     e( 55 - 55) =     58.56650  eV     1   --> A              
     e( 56 - 56) =     60.26967  eV     1   --> A              
     e( 57 - 57) =     62.65973  eV     1   --> A              
     e( 58 - 58) =     63.68301  eV     1   --> A              
     e( 59 - 59) =     63.68615  eV     1   --> A              
     e( 60 - 60) =     65.82568  eV     1   --> A              
     e( 61 - 61) =     68.43783  eV     1   --> A              
     e( 62 - 62) =     69.19943  eV     1   --> A              
     e( 63 - 63) =     69.48809  eV     1   --> A              
     e( 64 - 64) =     70.90830  eV     1   --> A              
     e( 65 - 65) =     71.03786  eV     1   --> A              
     e( 66 - 66) =     71.12767  eV     1   --> A              
     e( 67 - 67) =     71.13220  eV     1   --> A              
     e( 68 - 68) =     72.82397  eV     1   --> A              
     e( 69 - 69) =     73.26473  eV     1   --> A              
     e( 70 - 70) =     74.26399  eV     1   --> A              
     e( 71 - 71) =     74.82920  eV     1   --> A              
     e( 72 - 72) =     76.01980  eV     1   --> A              
     e( 73 - 73) =     76.02147  eV     1   --> A              
     e( 74 - 74) =     76.91856  eV     1   --> A              
     e( 75 - 75) =     79.42930  eV     1   --> A              
     e( 76 - 76) =     80.30744  eV     1   --> A              
     e( 77 - 77) =     82.48641  eV     1   --> A              
     e( 78 - 78) =     83.23467  eV     1   --> A              
     e( 79 - 79) =     84.89813  eV     1   --> A              
     e( 80 - 80) =     84.89954  eV     1   --> A              
     e( 81 - 81) =     85.35660  eV     1   --> A              
     e( 82 - 82) =     85.80302  eV     1   --> A              
     e( 83 - 83) =     87.35985  eV     1   --> A              
     e( 84 - 84) =     87.69847  eV     1   --> A              
     e( 85 - 85) =     87.73263  eV     1   --> A              
     e( 86 - 86) =     88.16527  eV     1   --> A              
     e( 87 - 87) =     88.62917  eV     1   --> A              
     e( 88 - 88) =     89.04316  eV     1   --> A              
     e( 89 - 89) =     89.24227  eV     1   --> A              
     e( 90 - 90) =     89.75887  eV     1   --> A              
     e( 91 - 91) =     89.75899  eV     1   --> A              
     e( 92 - 92) =     91.07805  eV     1   --> A              
     e( 93 - 93) =     93.78051  eV     1   --> A              
     e( 94 - 94) =     94.09417  eV     1   --> A              
     e( 95 - 95) =     94.11985  eV     1   --> A              
     e( 96 - 96) =     95.67372  eV     1   --> A              
     e( 97 - 97) =     95.82720  eV     1   --> A              
     e( 98 - 98) =     95.84304  eV     1   --> A              
     e( 99 - 99) =     96.29492  eV     1   --> A              
     e(100 -100) =     97.70940  eV     1   --> A              

 **************************************************************************

 **************************************************************************

                    xk=(   0.00000,  -0.23690,  -0.14507  )

     Band symmetry, C_1 (1)     point group:

     e(  1 -  1) =    -90.38515  eV     1   --> A              
     e(  2 -  2) =    -88.33622  eV     1   --> A              
     e(  3 -  3) =    -50.74007  eV     1   --> A              
     e(  4 -  4) =    -50.72813  eV     1   --> A              
     e(  5 -  5) =    -50.72477  eV     1   --> A              
     e(  6 -  6) =    -48.73931  eV     1   --> A              
     e(  7 -  7) =    -48.72861  eV     1   --> A              
     e(  8 -  8) =    -48.72472  eV     1   --> A              
     e(  9 -  9) =     -5.49544  eV     1   --> A              
     e( 10 - 10) =     -4.22108  eV     1   --> A              
     e( 11 - 11) =      4.41574  eV     1   --> A              
     e( 12 - 12) =      6.87482  eV     1   --> A              
     e( 13 - 13) =      7.07961  eV     1   --> A              
     e( 14 - 14) =      8.57273  eV     1   --> A              
     e( 15 - 15) =      9.28280  eV     1   --> A              
     e( 16 - 16) =      9.36781  eV     1   --> A              
     e( 17 - 17) =      9.94412  eV     1   --> A              
     e( 18 - 18) =     10.33565  eV     1   --> A              
     e( 19 - 19) =     10.49420  eV     1   --> A              
     e( 20 - 20) =     10.89343  eV     1   --> A              
     e( 21 - 21) =     11.06570  eV     1   --> A              
     e( 22 - 22) =     11.57775  eV     1   --> A              
     e( 23 - 23) =     11.93123  eV     1   --> A              
     e( 24 - 24) =     12.07602  eV     1   --> A              
     e( 25 - 25) =     16.01596  eV     1   --> A              
     e( 26 - 26) =     16.05789  eV     1   --> A              
     e( 27 - 27) =     17.20132  eV     1   --> A              
     e( 28 - 28) =     21.05268  eV     1   --> A              
     e( 29 - 29) =     24.41547  eV     1   --> A              
     e( 30 - 30) =     27.37428  eV     1   --> A              
     e( 31 - 31) =     29.06783  eV     1   --> A              
     e( 32 - 32) =     29.41916  eV     1   --> A              
     e( 33 - 33) =     32.71765  eV     1   --> A              
     e( 34 - 34) =     32.71993  eV     1   --> A              
     e( 35 - 35) =     34.50966  eV     1   --> A              
     e( 36 - 36) =     36.08715  eV     1   --> A              
     e( 37 - 37) =     36.08979  eV     1   --> A              
     e( 38 - 38) =     36.39631  eV     1   --> A              
     e( 39 - 39) =     38.80767  eV     1   --> A              
     e( 40 - 40) =     39.12427  eV     1   --> A              
     e( 41 - 41) =     40.39406  eV     1   --> A              
     e( 42 - 42) =     42.56482  eV     1   --> A              
     e( 43 - 43) =     42.91601  eV     1   --> A              
     e( 44 - 44) =     42.94685  eV     1   --> A              
     e( 45 - 45) =     44.11204  eV     1   --> A              
     e( 46 - 46) =     45.22735  eV     1   --> A              
     e( 47 - 47) =     48.75597  eV     1   --> A              
     e( 48 - 48) =     50.69817  eV     1   --> A              
     e( 49 - 49) =     50.70110  eV     1   --> A              
     e( 50 - 50) =     53.68309  eV     1   --> A              
     e( 51 - 51) =     54.18623  eV     1   --> A              
     e( 52 - 52) =     54.35710  eV     1   --> A              
     e( 53 - 53) =     55.15628  eV     1   --> A              
     e( 54 - 54) =     57.94265  eV     1   --> A              
     e( 55 - 55) =     58.62280  eV     1   --> A              
     e( 56 - 56) =     60.52012  eV     1   --> A              
     e( 57 - 57) =     62.37337  eV     1   --> A              
     e( 58 - 58) =     63.20231  eV     1   --> A              
     e( 59 - 59) =     63.20546  eV     1   --> A              
     e( 60 - 60) =     65.60638  eV     1   --> A              
     e( 61 - 61) =     68.50951  eV     1   --> A              
     e( 62 - 62) =     69.11442  eV     1   --> A              
     e( 63 - 63) =     69.31404  eV     1   --> A              
[...]
     e( 96 - 96) =     94.06406  eV     1   --> A              
     e( 97 - 97) =     94.78746  eV     1   --> A              
     e( 98 - 98) =     94.99132  eV     1   --> A              
     e( 99 - 99) =     95.20342  eV     1   --> A              
     e(100 -100) =     95.87742  eV     1   --> A              

 **************************************************************************

 **************************************************************************

                    xk=(   0.00781,  -0.02591,  -0.04231  )

     Band symmetry, C_1 (1)     point group:

     e(  1 -  1) =    -90.38466  eV     1   --> A              
     e(  2 -  2) =    -88.33511  eV     1   --> A              
     e(  3 -  3) =    -50.73926  eV     1   --> A              
     e(  4 -  4) =    -50.72354  eV     1   --> A              
     e(  5 -  5) =    -50.72302  eV     1   --> A              
     e(  6 -  6) =    -48.73851  eV     1   --> A              
     e(  7 -  7) =    -48.72330  eV     1   --> A              
     e(  8 -  8) =    -48.72306  eV     1   --> A              
     e(  9 -  9) =     -5.64015  eV     1   --> A              
     e( 10 - 10) =     -4.19029  eV     1   --> A              
     e( 11 - 11) =      3.96552  eV     1   --> A              
     e( 12 - 12) =      6.98983  eV     1   --> A              
     e( 13 - 13) =      6.99746  eV     1   --> A              
     e( 14 - 14) =      9.73003  eV     1   --> A              
     e( 15 - 15) =      9.73630  eV     1   --> A              
     e( 16 - 16) =      9.86781  eV     1   --> A              
     e( 17 - 17) =     10.27855  eV     1   --> A              
     e( 18 - 18) =     10.36778  eV     1   --> A              
     e( 19 - 19) =     10.38933  eV     1   --> A              
     e( 20 - 20) =     10.63113  eV     1   --> A              
     e( 21 - 21) =     10.69053  eV     1   --> A              
     e( 22 - 22) =     11.65046  eV     1   --> A              
     e( 23 - 23) =     11.81630  eV     1   --> A              
     e( 24 - 24) =     11.82647  eV     1   --> A              
     e( 25 - 25) =     16.18213  eV     1   --> A              
     e( 26 - 26) =     16.19088  eV     1   --> A              
     e( 27 - 27) =     16.20289  eV     1   --> A              
     e( 28 - 28) =     20.13100  eV     1   --> A              
     e( 29 - 29) =     24.64180  eV     1   --> A              
     e( 30 - 30) =     28.50034  eV     1   --> A              
     e( 31 - 31) =     28.57927  eV     1   --> A              
     e( 32 - 32) =     31.98562  eV     1   --> A              
     e( 33 - 33) =     33.34647  eV     1   --> A              
     e( 34 - 34) =     33.41127  eV     1   --> A              
     e( 35 - 35) =     33.59048  eV     1   --> A              
     e( 36 - 36) =     35.87899  eV     1   --> A              
     e( 37 - 37) =     36.75627  eV     1   --> A              
     e( 38 - 38) =     36.91168  eV     1   --> A              
     e( 39 - 39) =     37.00339  eV     1   --> A              
     e( 40 - 40) =     39.98406  eV     1   --> A              
     e( 41 - 41) =     40.20326  eV     1   --> A              
     e( 42 - 42) =     40.64431  eV     1   --> A              
     e( 43 - 43) =     40.73513  eV     1   --> A              
     e( 44 - 44) =     41.47091  eV     1   --> A              
     e( 45 - 45) =     43.46177  eV     1   --> A              
     e( 46 - 46) =     43.49331  eV     1   --> A              
     e( 47 - 47) =     50.51371  eV     1   --> A              
     e( 48 - 48) =     50.73613  eV     1   --> A              
     e( 49 - 49) =     50.74829  eV     1   --> A              
     e( 50 - 50) =     51.38260  eV     1   --> A              
     e( 51 - 51) =     54.77860  eV     1   --> A              
     e( 52 - 52) =     54.83503  eV     1   --> A              
     e( 53 - 53) =     56.62785  eV     1   --> A              
     e( 54 - 54) =     57.02539  eV     1   --> A              
     e( 55 - 55) =     58.96768  eV     1   --> A              
     e( 56 - 56) =     59.00096  eV     1   --> A              
     e( 57 - 57) =     65.40454  eV     1   --> A              
     e( 58 - 58) =     65.67366  eV     1   --> A              
     e( 59 - 59) =     67.54841  eV     1   --> A              
     e( 60 - 60) =     67.85737  eV     1   --> A              
     e( 61 - 61) =     67.91346  eV     1   --> A              
     e( 62 - 62) =     67.99573  eV     1   --> A              
     e( 63 - 63) =     70.93412  eV     1   --> A              
     e( 64 - 64) =     70.96224  eV     1   --> A              
     e( 65 - 65) =     71.02988  eV     1   --> A              
     e( 66 - 66) =     71.20424  eV     1   --> A              
     e( 67 - 67) =     71.48317  eV     1   --> A              
     e( 68 - 68) =     72.44016  eV     1   --> A              
     e( 69 - 69) =     72.46536  eV     1   --> A              
     e( 70 - 70) =     72.70448  eV     1   --> A              
     e( 71 - 71) =     73.15593  eV     1   --> A              
     e( 72 - 72) =     73.60891  eV     1   --> A              
     e( 73 - 73) =     74.16996  eV     1   --> A              
     e( 74 - 74) =     77.54094  eV     1   --> A              
     e( 75 - 75) =     79.95464  eV     1   --> A              
     e( 76 - 76) =     80.06164  eV     1   --> A              
     e( 77 - 77) =     80.79312  eV     1   --> A              
     e( 78 - 78) =     83.00087  eV     1   --> A              
     e( 79 - 79) =     83.13798  eV     1   --> A              
     e( 80 - 80) =     87.87377  eV     1   --> A              
     e( 81 - 81) =     87.89569  eV     1   --> A              
     e( 82 - 82) =     87.94240  eV     1   --> A              
     e( 83 - 83) =     88.51716  eV     1   --> A              
     e( 84 - 84) =     89.73064  eV     1   --> A              
     e( 85 - 85) =     90.47556  eV     1   --> A              
     e( 86 - 86) =     90.62653  eV     1   --> A              
     e( 87 - 87) =     90.79336  eV     1   --> A              
     e( 88 - 88) =     90.85414  eV     1   --> A              
     e( 89 - 89) =     92.22857  eV     1   --> A              
     e( 90 - 90) =     92.67583  eV     1   --> A              
     e( 91 - 91) =     92.86140  eV     1   --> A              
     e( 92 - 92) =     93.00463  eV     1   --> A              
     e( 93 - 93) =     93.11563  eV     1   --> A              
     e( 94 - 94) =     93.75022  eV     1   --> A              
     e( 95 - 95) =     93.82733  eV     1   --> A              
     e( 96 - 96) =     93.85257  eV     1   --> A              
     e( 97 - 97) =     94.30000  eV     1   --> A              
     e( 98 - 98) =     94.99039  eV     1   --> A              
     e( 99 - 99) =     95.13189  eV     1   --> A              
     e(100 -100) =     95.43522  eV     1   --> A              

 **************************************************************************

 **************************************************************************

                    xk=(   0.00391,  -0.01296,  -0.02116  )

     Band symmetry, C_1 (1)     point group:

     e(  1 -  1) =    -90.38465  eV     1   --> A              
     e(  2 -  2) =    -88.33508  eV     1   --> A              
     e(  3 -  3) =    -50.73923  eV     1   --> A              
     e(  4 -  4) =    -50.72342  eV     1   --> A              
     e(  5 -  5) =    -50.72295  eV     1   --> A              
     e(  6 -  6) =    -48.73848  eV     1   --> A              
     e(  7 -  7) =    -48.72315  eV     1   --> A              
     e(  8 -  8) =    -48.72300  eV     1   --> A              
     e(  9 -  9) =     -5.64374  eV     1   --> A              
     e( 10 - 10) =     -4.19029  eV     1   --> A              
     e( 11 - 11) =      3.95444  eV     1   --> A              
     e( 12 - 12) =      6.99371  eV     1   --> A              
     e( 13 - 13) =      6.99558  eV     1   --> A              
     e( 14 - 14) =      9.75732  eV     1   --> A              
     e( 15 - 15) =      9.75941  eV     1   --> A              
     e( 16 - 16) =      9.87447  eV     1   --> A              
     e( 17 - 17) =     10.34161  eV     1   --> A              
     e( 18 - 18) =     10.36837  eV     1   --> A              
     e( 19 - 19) =     10.37415  eV     1   --> A              
     e( 20 - 20) =     10.62507  eV     1   --> A              
     e( 21 - 21) =     10.64335  eV     1   --> A              
     e( 22 - 22) =     11.65198  eV     1   --> A              
     e( 23 - 23) =     11.81406  eV     1   --> A              
     e( 24 - 24) =     11.81750  eV     1   --> A              
     e( 25 - 25) =     16.15306  eV     1   --> A              
     e( 26 - 26) =     16.20031  eV     1   --> A              
     e( 27 - 27) =     16.20352  eV     1   --> A              
     e( 28 - 28) =     20.09963  eV     1   --> A              
     e( 29 - 29) =     24.64929  eV     1   --> A              
     e( 30 - 30) =     28.54662  eV     1   --> A              
     e( 31 - 31) =     28.56659  eV     1   --> A              
     e( 32 - 32) =     32.14618  eV     1   --> A              
     e( 33 - 33) =     33.39171  eV     1   --> A              
     e( 34 - 34) =     33.40799  eV     1   --> A              
     e( 35 - 35) =     33.45907  eV     1   --> A              
     e( 36 - 36) =     35.81087  eV     1   --> A              
     e( 37 - 37) =     36.86882  eV     1   --> A              
     e( 38 - 38) =     36.91182  eV     1   --> A              
     e( 39 - 39) =     36.93401  eV     1   --> A              
     e( 40 - 40) =     40.15765  eV     1   --> A              
     e( 41 - 41) =     40.21858  eV     1   --> A              
     e( 42 - 42) =     40.60583  eV     1   --> A              
     e( 43 - 43) =     40.62516  eV     1   --> A              
     e( 44 - 44) =     41.30796  eV     1   --> A              
     e( 45 - 45) =     43.43491  eV     1   --> A              
     e( 46 - 46) =     43.44282  eV     1   --> A              
     e( 47 - 47) =     50.66657  eV     1   --> A              
     e( 48 - 48) =     50.74245  eV     1   --> A              
     e( 49 - 49) =     50.74734  eV     1   --> A              
     e( 50 - 50) =     51.21403  eV     1   --> A              
     e( 51 - 51) =     54.81914  eV     1   --> A              
     e( 52 - 52) =     54.83356  eV     1   --> A              
     e( 53 - 53) =     56.68287  eV     1   --> A              
     e( 54 - 54) =     56.93496  eV     1   --> A              
     e( 55 - 55) =     58.97768  eV     1   --> A              
     e( 56 - 56) =     58.98595  eV     1   --> A              
     e( 57 - 57) =     65.59983  eV     1   --> A              
     e( 58 - 58) =     65.67321  eV     1   --> A              
     e( 59 - 59) =     67.74164  eV     1   --> A              
     e( 60 - 60) =     67.93811  eV     1   --> A              
     e( 61 - 61) =     68.03085  eV     1   --> A              
     e( 62 - 62) =     68.06865  eV     1   --> A              
     e( 63 - 63) =     70.91833  eV     1   --> A              
     e( 64 - 64) =     70.93427  eV     1   --> A              
     e( 65 - 65) =     70.96014  eV     1   --> A              
     e( 66 - 66) =     71.01957  eV     1   --> A              
     e( 67 - 67) =     71.07927  eV     1   --> A              
     e( 68 - 68) =     72.45987  eV     1   --> A              
     e( 69 - 69) =     72.56394  eV     1   --> A              
     e( 70 - 70) =     72.66728  eV     1   --> A              
     e( 71 - 71) =     73.44035  eV     1   --> A              
     e( 72 - 72) =     73.56506  eV     1   --> A              
     e( 73 - 73) =     74.16453  eV     1   --> A              
     e( 74 - 74) =     77.19523  eV     1   --> A              
     e( 75 - 75) =     80.19856  eV     1   --> A              
     e( 76 - 76) =     80.24022  eV     1   --> A              
     e( 77 - 77) =     80.84769  eV     1   --> A              
     e( 78 - 78) =     82.75306  eV     1   --> A              
     e( 79 - 79) =     82.79630  eV     1   --> A              
     e( 80 - 80) =     87.95748  eV     1   --> A              
     e( 81 - 81) =     87.96305  eV     1   --> A              
     e( 82 - 82) =     87.97450  eV     1   --> A              
     e( 83 - 83) =     89.05347  eV     1   --> A              
     e( 84 - 84) =     89.88559  eV     1   --> A              
     e( 85 - 85) =     90.19617  eV     1   --> A              
     e( 86 - 86) =     90.89140  eV     1   --> A              
     e( 87 - 87) =     90.94050  eV     1   --> A              
     e( 88 - 88) =     90.95902  eV     1   --> A              
     e( 89 - 89) =     92.57945  eV     1   --> A              
     e( 90 - 90) =     93.16113  eV     1   --> A              
     e( 91 - 91) =     93.18711  eV     1   --> A              
     e( 92 - 92) =     93.23281  eV     1   --> A              
     e( 93 - 93) =     93.23446  eV     1   --> A              
     e( 94 - 94) =     93.63967  eV     1   --> A              
     e( 95 - 95) =     93.69806  eV     1   --> A              
     e( 96 - 96) =     93.73173  eV     1   --> A              
     e( 97 - 97) =     93.84450  eV     1   --> A              
     e( 98 - 98) =     94.97052  eV     1   --> A              
     e( 99 - 99) =     95.03449  eV     1   --> A              
     e(100 -100) =     95.09440  eV     1   --> A              

 **************************************************************************

 **************************************************************************

                    xk=(   0.00000,   0.00000,   0.00000  )

     point group C_i (-1)   
     there are  2 classes
     the character table:

       E     i    
A_g    1.00  1.00
A_u    1.00 -1.00

     the symmetry operations in each class and the name of the first element:

     E        1
                                                                 
     i        2
                                                                 

     Band symmetry, C_i (-1)    point group:

     e(  1 -  1) =    -90.38464  eV     1   --> A_g            
     e(  2 -  2) =    -88.33507  eV     1   --> A_g            
     e(  3 -  3) =    -50.73922  eV     1   --> A_u            
     e(  4 -  4) =    -50.72338  eV     1   --> A_u            
     e(  5 -  5) =    -50.72292  eV     1   --> A_u            
     e(  6 -  6) =    -48.73847  eV     1   --> A_u            
     e(  7 -  7) =    -48.72311  eV     1   --> A_u            
     e(  8 -  8) =    -48.72297  eV     1   --> A_u            
     e(  9 -  9) =     -5.64494  eV     1   --> A_g            
     e( 10 - 10) =     -4.19029  eV     1   --> A_u            
     e( 11 - 11) =      3.95074  eV     1   --> A_g            
     e( 12 - 12) =      6.99489  eV     1   --> A_g            
     e( 13 - 13) =      6.99506  eV     1   --> A_g            
     e( 14 - 14) =      9.76624  eV     1   --> A_g            
     e( 15 - 15) =      9.76685  eV     1   --> A_g            
     e( 16 - 16) =      9.87749  eV     1   --> A_g            
     e( 17 - 17) =     10.36796  eV     1   --> A_u            
     e( 18 - 19) =     10.36874  eV     2   -->   2 A_u            
     e( 20 - 20) =     10.62182  eV     1   --> A_g            
     e( 21 - 21) =     10.62352  eV     1   --> A_g            
     e( 22 - 22) =     11.65246  eV     1   --> A_g            
     e( 23 - 23) =     11.81325  eV     1   --> A_g            
     e( 24 - 24) =     11.81451  eV     1   --> A_g            
     e( 25 - 25) =     16.14247  eV     1   --> A_g            
     e( 26 - 26) =     16.20364  eV     1   --> A_g            
     e( 27 - 27) =     16.20444  eV     1   --> A_g            
     e( 28 - 28) =     20.08909  eV     1   --> A_u            
     e( 29 - 29) =     24.65179  eV     1   --> A_g            
     e( 30 - 30) =     28.56226  eV     1   --> A_u            
     e( 31 - 31) =     28.56237  eV     1   --> A_u            
     e( 32 - 32) =     32.20825  eV     1   --> A_u            
     e( 33 - 33) =     33.40673  eV     1   --> A_g            
     e( 34 - 35) =     33.40687  eV     2   -->   2 A_g            
     e( 36 - 36) =     35.78784  eV     1   --> A_g            
     e( 37 - 37) =     36.90572  eV     1   --> A_u            
     e( 38 - 38) =     36.91259  eV     1   --> A_u            
     e( 39 - 39) =     36.91271  eV     1   --> A_u            
     e( 40 - 40) =     40.22306  eV     1   --> A_g            
     e( 41 - 41) =     40.22320  eV     1   --> A_g            
     e( 42 - 42) =     40.59381  eV     1   --> A_g            
     e( 43 - 43) =     40.59408  eV     1   --> A_g            
     e( 44 - 44) =     41.23836  eV     1   --> A_u            
     e( 45 - 46) =     43.42588  eV     2   -->   2 A_u            
     e( 47 - 48) =     50.74410  eV     2   -->   2 A_u            
     e( 49 - 49) =     50.74755  eV     1   --> A_u            
     e( 50 - 50) =     51.13117  eV     1   --> A_g            
     e( 51 - 51) =     54.83291  eV     1   --> A_g            
     e( 52 - 52) =     54.83307  eV     1   --> A_g            
     e( 53 - 53) =     56.71391  eV     1   --> A_u            
     e( 54 - 54) =     56.89187  eV     1   --> A_g            
     e( 55 - 56) =     58.98093  eV     2   -->   2 A_u            
     e( 57 - 58) =     65.67310  eV     2   -->   2 A_g            
     e( 59 - 59) =     67.67611  eV     1   --> A_u            
     e( 60 - 60) =     68.09292  eV     1   --> A_u            
     e( 61 - 62) =     68.09424  eV     2   -->   2 A_u            
     e( 63 - 64) =     70.88463  eV     2   -->   2 A_g            
     e( 65 - 65) =     70.95740  eV     1   --> A_g            
     e( 66 - 67) =     70.95946  eV     2   -->   2 A_g            
     e( 68 - 68) =     72.45918  eV     1   --> A_g            
     e( 69 - 69) =     72.60433  eV     1   --> A_u            
     e( 70 - 70) =     72.65340  eV     1   --> A_u            
     e( 71 - 72) =     73.55033  eV     2   -->   2 A_u            
     e( 73 - 73) =     74.16270  eV     1   --> A_g            
     e( 74 - 74) =     77.06645  eV     1   --> A_g            
     e( 75 - 76) =     80.29090  eV     2   -->   2 A_g            
     e( 77 - 77) =     80.89794  eV     1   --> A_g            
     e( 78 - 79) =     82.65906  eV     2   -->   2 A_u            
     e( 80 - 80) =     87.98440  eV     1   --> A_u            
     e( 81 - 82) =     87.98520  eV     2   -->   2 A_u            
     e( 83 - 83) =     89.37845  eV     1   --> A_u            
     e( 84 - 85) =     89.93431  eV     2   -->   2 A_g            
     e( 86 - 87) =     90.98233  eV     2   -->   2 A_u            
     e( 88 - 88) =     91.03211  eV     1   --> A_u            
     e( 89 - 89) =     92.79985  eV     1   --> A_g            
     e( 90 - 90) =     93.27266  eV     1   --> A_u            
     e( 91 - 92) =     93.36960  eV     2   -->   2 A_u            
     e( 93 - 93) =     93.37826  eV     1   --> A_u            
     e( 94 - 95) =     93.59618  eV     2   -->   2 A_u            
     e( 96 - 97) =     93.63205  eV     2   -->   2 A_g            
     e( 98 - 99) =     94.95585  eV     2   -->   2 A_g            
     e(100 -100) =     94.95647  eV     1   --> A_g            

 **************************************************************************
 
     BANDS        :    40.34s CPU        51.13s WALL

 
   This run was terminated on:  15:28:19   3Jan2020            

=------------------------------------------------------------------------------=
   JOB DONE.
=------------------------------------------------------------------------------=
IPL WARN> ipl_option_omp: wrong omp option 
