
     Program BANDS v.6.1 (svn rev. 13369) starts on  3Jan2020 at 19: 2:56 

     This program is part of the open-source Quantum ESPRESSO suite
     for quantum simulation of materials; please cite
         "P. Giannozzi et al., J. Phys.:Condens. Matter 21 395502 (2009);
          URL http://www.quantum-espresso.org", 
     in publications or presentations arising from this work. More details at
     http://www.quantum-espresso.org/quote

     Parallel version (MPI), running on    40 processors
     R & G space division:  proc/nbgrp/npool/nimage =      40

     Reading data from directory:
     ./outdir/NiO.save

   Info: using nr1, nr2, nr3 values from input

   Info: using nr1, nr2, nr3 values from input

     IMPORTANT: XC functional enforced from input :
     Exchange-correlation      =  SLA  PW   PBX  PBC ( 1  4  3  4 0 0)
     Any further DFT definition will be discarded
     Please, verify this is what you really want

               file Ni.pbe-spn-kjpaw_psl.1.0.0.UPF: wavefunction(s)  3P 3D renormalized
               file Ni.pbe-spn-kjpaw_psl.1.0.0.UPF: wavefunction(s)  3P 3D renormalized
               file O.pbe-n-kjpaw_psl.1.0.0.UPF: wavefunction(s)  2S 2P renormalized
 
     Parallelization info
     --------------------
     sticks:   dense  smooth     PW     G-vecs:    dense   smooth      PW
     Min          82      82     22                 2333     2333     341
     Max          83      83     23                 2335     2335     344
     Sum        3287    3287    911                93351    93351   13705
 
     Generating pointlists ...
     new r_m :   0.1684 (alat units)  1.6253 (a.u.) for type    1
     new r_m :   0.1684 (alat units)  1.6253 (a.u.) for type    2
     new r_m :   0.1684 (alat units)  1.6253 (a.u.) for type    3
     high-symmetry point:  0.0000 0.0000 0.0000   x coordinate   0.0000
     high-symmetry point:  0.0000-0.9045-0.5539   x coordinate   1.0607
     high-symmetry point: -0.1875-0.6219-1.0155   x coordinate   1.6335
     high-symmetry point: -0.3438-0.1036-1.0155   x coordinate   2.1747
     high-symmetry point:  0.0000 0.0000 0.0000   x coordinate   3.2519
     high-symmetry point: -0.5000-0.1508-0.0923   x coordinate   3.7822
     high-symmetry point: -0.1875-0.9045-0.5539   x coordinate   4.7197
     high-symmetry point: -0.1875-0.6219-1.0155   x coordinate   5.2609
     high-symmetry point: -0.5000-0.1508-0.0923   x coordinate   6.3435
     high-symmetry point: -0.3438-0.1036-1.0155   x coordinate   7.2810
     high-symmetry point: -0.1875-0.9045-0.5539   x coordinate   8.2185
     high-symmetry point:  0.0000-0.9045-0.5539   x coordinate   8.4060
     high-symmetry point:  0.0000 0.0000 0.0000   x coordinate   9.4666
     high-symmetry point:  0.0000 0.0000-1.0155   x coordinate  10.4821
     high-symmetry point:  0.0000-0.6219-1.0155   x coordinate  11.1040
     high-symmetry point:  0.1875-0.6219-1.0155   x coordinate  11.2915
     high-symmetry point:  0.0000 0.0000 0.0000   x coordinate  12.4970

     Plottable bands (eV) written to file NiO.bands.dat.gnu
     Bands written to file NiO.bands.dat

 **************************************************************************

                    xk=(   0.00000,   0.00000,   0.00000  )

     point group C_i (-1)   
     there are  2 classes
     the character table:

       E     i    
A_g    1.00  1.00
A_u    1.00 -1.00

     the symmetry operations in each class and the name of the first element:

     E        1
                                                                 
     i        2
                                                                 

     Band symmetry, C_i (-1)    point group:

     e(  1 -  1) =    -90.64488  eV     1   --> A_g            
     e(  2 -  2) =    -88.50467  eV     1   --> A_g            
     e(  3 -  3) =    -50.97531  eV     1   --> A_u            
     e(  4 -  4) =    -50.96058  eV     1   --> A_u            
     e(  5 -  5) =    -50.95983  eV     1   --> A_u            
     e(  6 -  6) =    -48.88671  eV     1   --> A_u            
     e(  7 -  7) =    -48.87147  eV     1   --> A_u            
     e(  8 -  8) =    -48.87131  eV     1   --> A_u            
     e(  9 -  9) =     -5.52754  eV     1   --> A_g            
     e( 10 - 10) =     -4.05202  eV     1   --> A_u            
     e( 11 - 11) =      2.73732  eV     1   --> A_g            
     e( 12 - 12) =      5.93058  eV     1   --> A_g            
     e( 13 - 13) =      5.93096  eV     1   --> A_g            
     e( 14 - 14) =      8.59319  eV     1   --> A_g            
     e( 15 - 15) =      8.59432  eV     1   --> A_g            
     e( 16 - 16) =      8.71898  eV     1   --> A_g            
     e( 17 - 17) =      9.56907  eV     1   --> A_g            
     e( 18 - 18) =      9.57193  eV     1   --> A_g            
     e( 19 - 19) =      9.75446  eV     1   --> A_u            
     e( 20 - 21) =      9.75811  eV     2   -->   2 A_u            
     e( 22 - 22) =     10.66565  eV     1   --> A_g            
     e( 23 - 23) =     11.17573  eV     1   --> A_g            
     e( 24 - 24) =     11.17825  eV     1   --> A_g            
     e( 25 - 25) =     16.17435  eV     1   --> A_g            
     e( 26 - 26) =     16.55342  eV     1   --> A_g            
     e( 27 - 27) =     16.55442  eV     1   --> A_g            
     e( 28 - 28) =     20.10084  eV     1   --> A_u            
     e( 29 - 29) =     24.67108  eV     1   --> A_g            
     e( 30 - 30) =     28.54259  eV     1   --> A_u            
     e( 31 - 31) =     28.54277  eV     1   --> A_u            
     e( 32 - 32) =     32.20914  eV     1   --> A_u            
     e( 33 - 34) =     33.37837  eV     2   -->   2 A_g            
     e( 35 - 35) =     33.37855  eV     1   --> A_g            
     e( 36 - 36) =     35.74887  eV     1   --> A_g            
     e( 37 - 37) =     36.86394  eV     1   --> A_u            
     e( 38 - 38) =     36.87145  eV     1   --> A_u            
     e( 39 - 39) =     36.87162  eV     1   --> A_u            
     e( 40 - 40) =     40.20863  eV     1   --> A_g            
     e( 41 - 41) =     40.20899  eV     1   --> A_g            
     e( 42 - 42) =     40.58464  eV     1   --> A_g            
     e( 43 - 43) =     40.58507  eV     1   --> A_g            
     e( 44 - 44) =     41.25741  eV     1   --> A_u            
     e( 45 - 46) =     43.43892  eV     2   -->   2 A_u            
     e( 47 - 48) =     50.79826  eV     2   -->   2 A_u            
     e( 49 - 49) =     50.80104  eV     1   --> A_u            
     e( 50 - 50) =     51.08855  eV     1   --> A_g            
     e( 51 - 51) =     54.82485  eV     1   --> A_g            
     e( 52 - 52) =     54.82512  eV     1   --> A_g            
     e( 53 - 53) =     56.72909  eV     1   --> A_u            
     e( 54 - 54) =     56.89472  eV     1   --> A_g            
     e( 55 - 56) =     58.97005  eV     2   -->   2 A_u            
     e( 57 - 58) =     65.68524  eV     2   -->   2 A_g            
     e( 59 - 59) =     67.63725  eV     1   --> A_u            
     e( 60 - 60) =     68.07482  eV     1   --> A_u            
     e( 61 - 62) =     68.07676  eV     2   -->   2 A_u            
     e( 63 - 64) =     70.90045  eV     2   -->   2 A_g            
     e( 65 - 65) =     70.96961  eV     1   --> A_g            
     e( 66 - 67) =     70.97256  eV     2   -->   2 A_g            
     e( 68 - 68) =     72.40883  eV     1   --> A_g            
     e( 69 - 69) =     72.56448  eV     1   --> A_u            
     e( 70 - 70) =     72.68871  eV     1   --> A_u            
     e( 71 - 72) =     73.58552  eV     2   -->   2 A_u            
     e( 73 - 73) =     74.20461  eV     1   --> A_g            
     e( 74 - 74) =     77.08815  eV     1   --> A_g            
     e( 75 - 76) =     80.26145  eV     2   -->   2 A_g            
     e( 77 - 77) =     80.94369  eV     1   --> A_g            
     e( 78 - 79) =     82.65534  eV     2   -->   2 A_u            
     e( 80 - 80) =     87.98101  eV     1   --> A_u            
     e( 81 - 82) =     87.98167  eV     2   -->   2 A_u            
     e( 83 - 83) =     89.34406  eV     1   --> A_u            
     e( 84 - 85) =     89.92843  eV     2   -->   2 A_g            
     e( 86 - 87) =     90.97584  eV     2   -->   2 A_u            
     e( 88 - 88) =     91.03242  eV     1   --> A_u            
     e( 89 - 89) =     92.82090  eV     1   --> A_g            
     e( 90 - 90) =     93.21487  eV     1   --> A_u            
     e( 91 - 91) =     93.36869  eV     1   --> A_u            
     e( 92 - 92) =     93.36881  eV     1   --> A_u            
     e( 93 - 93) =     93.37773  eV     1   --> A_u            
     e( 94 - 94) =     93.61038  eV     1   --> A_u            
     e( 95 - 95) =     93.61049  eV     1   --> A_u            
     e( 96 - 97) =     93.63519  eV     2   -->   2 A_g            
     e( 98 - 99) =     94.97379  eV     2   -->   2 A_g            
     e(100 -100) =     94.97430  eV     1   --> A_g            

 **************************************************************************

 **************************************************************************

                    xk=(   0.00000,  -0.02154,  -0.01319  )

     point group C_1 (1)    
     there are  1 classes
     the character table:

       E    
A      1.00

     the symmetry operations in each class and the name of the first element:

     E        1
                                                                 

     Band symmetry, C_1 (1)     point group:

     e(  1 -  1) =    -90.64489  eV     1   --> A              
     e(  2 -  2) =    -88.50469  eV     1   --> A              
     e(  3 -  3) =    -50.97532  eV     1   --> A              
     e(  4 -  4) =    -50.96061  eV     1   --> A              
     e(  5 -  5) =    -50.95987  eV     1   --> A              
     e(  6 -  6) =    -48.88673  eV     1   --> A              
     e(  7 -  7) =    -48.87151  eV     1   --> A              
     e(  8 -  8) =    -48.87136  eV     1   --> A              
     e(  9 -  9) =     -5.52662  eV     1   --> A              
     e( 10 - 10) =     -4.05256  eV     1   --> A              
     e( 11 - 11) =      2.74193  eV     1   --> A              
     e( 12 - 12) =      5.92957  eV     1   --> A              
     e( 13 - 13) =      5.93155  eV     1   --> A              
     e( 14 - 14) =      8.58832  eV     1   --> A              
     e( 15 - 15) =      8.59104  eV     1   --> A              
     e( 16 - 16) =      8.71708  eV     1   --> A              
     e( 17 - 17) =      9.54593  eV     1   --> A              
     e( 18 - 18) =      9.56657  eV     1   --> A              
     e( 19 - 19) =      9.75530  eV     1   --> A              
     e( 20 - 20) =      9.76161  eV     1   --> A              
     e( 21 - 21) =      9.77493  eV     1   --> A              
     e( 22 - 22) =     10.66509  eV     1   --> A              
     e( 23 - 23) =     11.17603  eV     1   --> A              
     e( 24 - 24) =     11.18011  eV     1   --> A              
     e( 25 - 25) =     16.18485  eV     1   --> A              
     e( 26 - 26) =     16.55192  eV     1   --> A              
     e( 27 - 27) =     16.55285  eV     1   --> A              
     e( 28 - 28) =     20.11039  eV     1   --> A              
     e( 29 - 29) =     24.66891  eV     1   --> A              
     e( 30 - 30) =     28.52878  eV     1   --> A              
     e( 31 - 31) =     28.54721  eV     1   --> A              
     e( 32 - 32) =     32.14427  eV     1   --> A              
     e( 33 - 34) =     33.37444  eV     2   -->   2 A              
     e( 35 - 35) =     33.42712  eV     1   --> A              
     e( 36 - 36) =     35.76962  eV     1   --> A              
     e( 37 - 37) =     36.84634  eV     1   --> A              
     e( 38 - 38) =     36.85308  eV     1   --> A              
     e( 39 - 39) =     36.89126  eV     1   --> A              
     e( 40 - 40) =     40.14043  eV     1   --> A              
     e( 41 - 41) =     40.21381  eV     1   --> A              
     e( 42 - 42) =     40.60065  eV     1   --> A              
     e( 43 - 43) =     40.61027  eV     1   --> A              
     e( 44 - 44) =     41.32076  eV     1   --> A              
     e( 45 - 45) =     43.44508  eV     1   --> A              
     e( 46 - 46) =     43.46143  eV     1   --> A              
     e( 47 - 47) =     50.70515  eV     1   --> A              
     e( 48 - 48) =     50.79784  eV     1   --> A              
     e( 49 - 49) =     50.80029  eV     1   --> A              
     e( 50 - 50) =     51.18623  eV     1   --> A              
     e( 51 - 51) =     54.81691  eV     1   --> A              
     e( 52 - 52) =     54.81880  eV     1   --> A              
     e( 53 - 53) =     56.58900  eV     1   --> A              
     e( 54 - 54) =     57.04612  eV     1   --> A              
     e( 55 - 55) =     58.95963  eV     1   --> A              
     e( 56 - 56) =     58.97756  eV     1   --> A              
     e( 57 - 57) =     65.61304  eV     1   --> A              
     e( 58 - 58) =     65.69776  eV     1   --> A              
     e( 59 - 59) =     67.69146  eV     1   --> A              
     e( 60 - 60) =     67.95177  eV     1   --> A              
     e( 61 - 61) =     67.95349  eV     1   --> A              
     e( 62 - 62) =     68.07999  eV     1   --> A              
     e( 63 - 63) =     70.93308  eV     1   --> A              
     e( 64 - 64) =     70.93453  eV     1   --> A              
     e( 65 - 65) =     70.97257  eV     1   --> A              
     e( 66 - 66) =     71.06995  eV     1   --> A              
     e( 67 - 67) =     71.07110  eV     1   --> A              
     e( 68 - 68) =     72.41560  eV     1   --> A              
     e( 69 - 69) =     72.52558  eV     1   --> A              
     e( 70 - 70) =     72.70311  eV     1   --> A              
     e( 71 - 71) =     73.48471  eV     1   --> A              
     e( 72 - 72) =     73.59749  eV     1   --> A              
     e( 73 - 73) =     74.20648  eV     1   --> A              
     e( 74 - 74) =     77.20922  eV     1   --> A              
     e( 75 - 75) =     80.17650  eV     1   --> A              
     e( 76 - 76) =     80.22041  eV     1   --> A              
     e( 77 - 77) =     80.89343  eV     1   --> A              
     e( 78 - 78) =     82.74477  eV     1   --> A              
     e( 79 - 79) =     82.78013  eV     1   --> A              
     e( 80 - 80) =     87.96006  eV     1   --> A              
     e( 81 - 81) =     87.96169  eV     1   --> A              
     e( 82 - 82) =     87.96233  eV     1   --> A              
     e( 83 - 83) =     89.04524  eV     1   --> A              
     e( 84 - 84) =     89.89112  eV     1   --> A              
     e( 85 - 85) =     90.16031  eV     1   --> A              
     e( 86 - 86) =     90.89067  eV     1   --> A              
     e( 87 - 87) =     90.92731  eV     1   --> A              
     e( 88 - 88) =     90.96031  eV     1   --> A              
     e( 89 - 89) =     92.61494  eV     1   --> A              
     e( 90 - 90) =     93.17506  eV     1   --> A              
     e( 91 - 91) =     93.18003  eV     1   --> A              
     e( 92 - 92) =     93.18095  eV     1   --> A              
     e( 93 - 93) =     93.21507  eV     1   --> A              
     e( 94 - 94) =     93.63932  eV     1   --> A              
     e( 95 - 95) =     93.71064  eV     1   --> A              
     e( 96 - 96) =     93.71934  eV     1   --> A              
     e( 97 - 97) =     93.84513  eV     1   --> A              
     e( 98 - 98) =     95.00768  eV     1   --> A              
     e( 99 - 99) =     95.08353  eV     1   --> A              
     e(100 -100) =     95.08385  eV     1   --> A              

 **************************************************************************

 **************************************************************************

                    xk=(   0.00000,  -0.04307,  -0.02638  )

     Band symmetry, C_1 (1)     point group:

     e(  1 -  1) =    -90.64491  eV     1   --> A              
     e(  2 -  2) =    -88.50476  eV     1   --> A              
     e(  3 -  3) =    -50.97537  eV     1   --> A              
     e(  4 -  4) =    -50.96069  eV     1   --> A              
     e(  5 -  5) =    -50.96000  eV     1   --> A              
     e(  6 -  6) =    -48.88677  eV     1   --> A              
     e(  7 -  7) =    -48.87164  eV     1   --> A              
     e(  8 -  8) =    -48.87145  eV     1   --> A              
     e(  9 -  9) =     -5.52384  eV     1   --> A              
     e( 10 - 10) =     -4.05416  eV     1   --> A              
     e( 11 - 11) =      2.75574  eV     1   --> A              
     e( 12 - 12) =      5.92632  eV     1   --> A              
     e( 13 - 13) =      5.93357  eV     1   --> A              
     e( 14 - 14) =      8.57061  eV     1   --> A              
     e( 15 - 15) =      8.58350  eV     1   --> A              
     e( 16 - 16) =      8.71199  eV     1   --> A              
     e( 17 - 17) =      9.48815  eV     1   --> A              
     e( 18 - 18) =      9.55776  eV     1   --> A              
     e( 19 - 19) =      9.74774  eV     1   --> A              
     e( 20 - 20) =      9.77117  eV     1   --> A              
     e( 21 - 21) =      9.81792  eV     1   --> A              
     e( 22 - 22) =     10.66341  eV     1   --> A              
     e( 23 - 23) =     11.17636  eV     1   --> A              
     e( 24 - 24) =     11.18623  eV     1   --> A              
     e( 25 - 25) =     16.21612  eV     1   --> A              
     e( 26 - 26) =     16.54642  eV     1   --> A              
     e( 27 - 27) =     16.54932  eV     1   --> A              
     e( 28 - 28) =     20.13883  eV     1   --> A              
     e( 29 - 29) =     24.66239  eV     1   --> A              
     e( 30 - 30) =     28.48756  eV     1   --> A              
     e( 31 - 31) =     28.56089  eV     1   --> A              
     e( 32 - 32) =     31.97600  eV     1   --> A              
     e( 33 - 33) =     33.36239  eV     1   --> A              
     e( 34 - 34) =     33.36250  eV     1   --> A              
     e( 35 - 35) =     33.54666  eV     1   --> A              
     e( 36 - 36) =     35.83084  eV     1   --> A              
     e( 37 - 37) =     36.79399  eV     1   --> A              
     e( 38 - 38) =     36.80031  eV     1   --> A              
     e( 39 - 39) =     36.95238  eV     1   --> A              
     e( 40 - 40) =     39.95675  eV     1   --> A              
     e( 41 - 41) =     40.22549  eV     1   --> A              
     e( 42 - 42) =     40.67094  eV     1   --> A              
     e( 43 - 43) =     40.68767  eV     1   --> A              
     e( 44 - 44) =     41.46497  eV     1   --> A              
     e( 45 - 45) =     43.46335  eV     1   --> A              
     e( 46 - 46) =     43.52838  eV     1   --> A              
     e( 47 - 47) =     50.54012  eV     1   --> A              
     e( 48 - 48) =     50.79646  eV     1   --> A              
     e( 49 - 49) =     50.79889  eV     1   --> A              
     e( 50 - 50) =     51.36411  eV     1   --> A              
     e( 51 - 51) =     54.79306  eV     1   --> A              
     e( 52 - 52) =     54.80048  eV     1   --> A              
     e( 53 - 53) =     56.40228  eV     1   --> A              
     e( 54 - 54) =     57.26554  eV     1   --> A              
     e( 55 - 55) =     58.92864  eV     1   --> A              
     e( 56 - 56) =     59.00072  eV     1   --> A              
     e( 57 - 57) =     65.41837  eV     1   --> A              
     e( 58 - 58) =     65.73407  eV     1   --> A              
     e( 59 - 59) =     67.63313  eV     1   --> A              
     e( 60 - 60) =     67.63448  eV     1   --> A              
     e( 61 - 61) =     67.83250  eV     1   --> A              
     e( 62 - 62) =     68.09032  eV     1   --> A              
     e( 63 - 63) =     70.94598  eV     1   --> A              
     e( 64 - 64) =     70.94780  eV     1   --> A              
     e( 65 - 65) =     70.97338  eV     1   --> A              
     e( 66 - 66) =     71.40357  eV     1   --> A              
     e( 67 - 67) =     71.40425  eV     1   --> A              
     e( 68 - 68) =     72.40582  eV     1   --> A              
     e( 69 - 69) =     72.43794  eV     1   --> A              
     e( 70 - 70) =     72.74311  eV     1   --> A              
     e( 71 - 71) =     73.22456  eV     1   --> A              
     e( 72 - 72) =     73.63380  eV     1   --> A              
     e( 73 - 73) =     74.21201  eV     1   --> A              
     e( 74 - 74) =     77.53448  eV     1   --> A              
     e( 75 - 75) =     79.92349  eV     1   --> A              
     e( 76 - 76) =     80.11648  eV     1   --> A              
     e( 77 - 77) =     80.80933  eV     1   --> A              
     e( 78 - 78) =     82.99338  eV     1   --> A              
     e( 79 - 79) =     83.08579  eV     1   --> A              
     e( 80 - 80) =     87.89363  eV     1   --> A              
     e( 81 - 81) =     87.90147  eV     1   --> A              
     e( 82 - 82) =     87.90251  eV     1   --> A              
     e( 83 - 83) =     88.52750  eV     1   --> A              
     e( 84 - 84) =     89.78410  eV     1   --> A              
     e( 85 - 85) =     90.40766  eV     1   --> A              
     e( 86 - 86) =     90.65293  eV     1   --> A              
     e( 87 - 87) =     90.78198  eV     1   --> A              
     e( 88 - 88) =     90.82372  eV     1   --> A              
     e( 89 - 89) =     92.29199  eV     1   --> A              
     e( 90 - 90) =     92.81794  eV     1   --> A              
     e( 91 - 91) =     92.81957  eV     1   --> A              
     e( 92 - 92) =     92.83627  eV     1   --> A              
     e( 93 - 93) =     93.05977  eV     1   --> A              
     e( 94 - 94) =     93.72907  eV     1   --> A              
     e( 95 - 95) =     93.78826  eV     1   --> A              
     e( 96 - 96) =     93.82386  eV     1   --> A              
     e( 97 - 97) =     94.28656  eV     1   --> A              
     e( 98 - 98) =     95.10165  eV     1   --> A              
     e( 99 - 99) =     95.33974  eV     1   --> A              
     e(100 -100) =     95.34018  eV     1   --> A              

 **************************************************************************

 **************************************************************************

                    xk=(   0.00000,  -0.06461,  -0.03957  )

     Band symmetry, C_1 (1)     point group:

     e(  1 -  1) =    -90.64494  eV     1   --> A              
     e(  2 -  2) =    -88.50488  eV     1   --> A              
     e(  3 -  3) =    -50.97544  eV     1   --> A              
     e(  4 -  4) =    -50.96083  eV     1   --> A              
     e(  5 -  5) =    -50.96018  eV     1   --> A              
     e(  6 -  6) =    -48.88684  eV     1   --> A              
     e(  7 -  7) =    -48.87189  eV     1   --> A              
     e(  8 -  8) =    -48.87156  eV     1   --> A              
     e(  9 -  9) =     -5.51918  eV     1   --> A              
     e( 10 - 10) =     -4.05681  eV     1   --> A              
     e( 11 - 11) =      2.77865  eV     1   --> A              
     e( 12 - 12) =      5.92093  eV     1   --> A              
     e( 13 - 13) =      5.93694  eV     1   --> A              
     e( 14 - 14) =      8.53865  eV     1   --> A              
     e( 15 - 15) =      8.57110  eV     1   --> A              
     e( 16 - 16) =      8.70502  eV     1   --> A              
     e( 17 - 17) =      9.41611  eV     1   --> A              
     e( 18 - 18) =      9.54539  eV     1   --> A              
     e( 19 - 19) =      9.73613  eV     1   --> A              
     e( 20 - 20) =      9.78501  eV     1   --> A              
     e( 21 - 21) =      9.86593  eV     1   --> A              
     e( 22 - 22) =     10.66059  eV     1   --> A              
     e( 23 - 23) =     11.17673  eV     1   --> A              
     e( 24 - 24) =     11.19643  eV     1   --> A              
     e( 25 - 25) =     16.26742  eV     1   --> A              
     e( 26 - 26) =     16.53733  eV     1   --> A              
     e( 27 - 27) =     16.54388  eV     1   --> A              
     e( 28 - 28) =     20.18558  eV     1   --> A              
     e( 29 - 29) =     24.65156  eV     1   --> A              
     e( 30 - 30) =     28.42088  eV     1   --> A              
     e( 31 - 31) =     28.58355  eV     1   --> A              
     e( 32 - 32) =     31.74702  eV     1   --> A              
     e( 33 - 33) =     33.34148  eV     1   --> A              
     e( 34 - 34) =     33.34164  eV     1   --> A              
     e( 35 - 35) =     33.69460  eV     1   --> A              
     e( 36 - 36) =     35.92942  eV     1   --> A              
     e( 37 - 37) =     36.71404  eV     1   --> A              
     e( 38 - 38) =     36.71983  eV     1   --> A              
     e( 39 - 39) =     37.05427  eV     1   --> A              
     e( 40 - 40) =     39.70915  eV     1   --> A              
     e( 41 - 41) =     40.23888  eV     1   --> A              
     e( 42 - 42) =     40.80107  eV     1   --> A              
     e( 43 - 43) =     40.81620  eV     1   --> A              
     e( 44 - 44) =     41.63027  eV     1   --> A              
     e( 45 - 45) =     43.49364  eV     1   --> A              
     e( 46 - 46) =     43.63789  eV     1   --> A              
     e( 47 - 47) =     50.36228  eV     1   --> A              
     e( 48 - 48) =     50.79414  eV     1   --> A              
     e( 49 - 49) =     50.79657  eV     1   --> A              
     e( 50 - 50) =     51.56347  eV     1   --> A              
     e( 51 - 51) =     54.75498  eV     1   --> A              
     e( 52 - 52) =     54.77019  eV     1   --> A              
     e( 53 - 53) =     56.22453  eV     1   --> A              
     e( 54 - 54) =     57.49342  eV     1   --> A              
     e( 55 - 55) =     58.87809  eV     1   --> A              
     e( 56 - 56) =     59.04221  eV     1   --> A              
     e( 57 - 57) =     65.14276  eV     1   --> A              
     e( 58 - 58) =     65.79036  eV     1   --> A              
     e( 59 - 59) =     67.20492  eV     1   --> A              
     e( 60 - 60) =     67.20602  eV     1   --> A              
     e( 61 - 61) =     68.01865  eV     1   --> A              
     e( 62 - 62) =     68.10752  eV     1   --> A              
     e( 63 - 63) =     70.95767  eV     1   --> A              
     e( 64 - 64) =     70.95929  eV     1   --> A              
     e( 65 - 65) =     70.97436  eV     1   --> A              
     e( 66 - 66) =     71.86528  eV     1   --> A              
     e( 67 - 67) =     71.86581  eV     1   --> A              
     e( 68 - 68) =     72.19711  eV     1   --> A              
     e( 69 - 69) =     72.48011  eV     1   --> A              
     e( 70 - 70) =     72.80137  eV     1   --> A              
     e( 71 - 71) =     72.89079  eV     1   --> A              
     e( 72 - 72) =     73.69596  eV     1   --> A              
     e( 73 - 73) =     74.22091  eV     1   --> A              
     e( 74 - 74) =     77.99104  eV     1   --> A              
     e( 75 - 75) =     79.54778  eV     1   --> A              
     e( 76 - 76) =     79.98865  eV     1   --> A              
     e( 77 - 77) =     80.74589  eV     1   --> A              
     e( 78 - 78) =     83.36159  eV     1   --> A              
     e( 79 - 79) =     83.47190  eV     1   --> A              
     e( 80 - 80) =     87.77484  eV     1   --> A              
     e( 81 - 81) =     87.79305  eV     1   --> A              
     e( 82 - 82) =     87.79649  eV     1   --> A              
     e( 83 - 83) =     87.95287  eV     1   --> A              
     e( 84 - 84) =     89.61926  eV     1   --> A              
     e( 85 - 85) =     90.23279  eV     1   --> A              
     e( 86 - 86) =     90.30557  eV     1   --> A              
     e( 87 - 87) =     90.63605  eV     1   --> A              
     e( 88 - 88) =     90.80189  eV     1   --> A              
     e( 89 - 89) =     92.08879  eV     1   --> A              
     e( 90 - 90) =     92.35753  eV     1   --> A              
     e( 91 - 91) =     92.40937  eV     1   --> A              
     e( 92 - 92) =     92.41175  eV     1   --> A              
     e( 93 - 93) =     92.87923  eV     1   --> A              
     e( 94 - 94) =     93.81819  eV     1   --> A              
     e( 95 - 95) =     93.84441  eV     1   --> A              
     e( 96 - 96) =     93.97827  eV     1   --> A              
     e( 97 - 97) =     94.76418  eV     1   --> A              
     e( 98 - 98) =     95.23852  eV     1   --> A              
     e( 99 - 99) =     95.66439  eV     1   --> A              
     e(100 -100) =     95.66613  eV     1   --> A              

 **************************************************************************

 **************************************************************************

                    xk=(   0.00000,  -0.08615,  -0.05275  )

     Band symmetry, C_1 (1)     point group:

     e(  1 -  1) =    -90.64498  eV     1   --> A              
     e(  2 -  2) =    -88.50503  eV     1   --> A              
     e(  3 -  3) =    -50.97553  eV     1   --> A              
     e(  4 -  4) =    -50.96107  eV     1   --> A              
     e(  5 -  5) =    -50.96040  eV     1   --> A              
     e(  6 -  6) =    -48.88694  eV     1   --> A              
     e(  7 -  7) =    -48.87227  eV     1   --> A              
     e(  8 -  8) =    -48.87168  eV     1   --> A              
     e(  9 -  9) =     -5.51261  eV     1   --> A              
     e( 10 - 10) =     -4.06046  eV     1   --> A              
     e( 11 - 11) =      2.81054  eV     1   --> A              
     e( 12 - 12) =      5.91348  eV     1   --> A              
     e( 13 - 13) =      5.94160  eV     1   --> A              
     e( 14 - 14) =      8.49028  eV     1   --> A              
     e( 15 - 15) =      8.55392  eV     1   --> A              
     e( 16 - 16) =      8.69721  eV     1   --> A              
     e( 17 - 17) =      9.33682  eV     1   --> A              
     e( 18 - 18) =      9.53139  eV     1   --> A              
     e( 19 - 19) =      9.72179  eV     1   --> A              
     e( 20 - 20) =      9.80133  eV     1   --> A              
     e( 21 - 21) =      9.91309  eV     1   --> A              
     e( 22 - 22) =     10.65661  eV     1   --> A              
     e( 23 - 23) =     11.17730  eV     1   --> A              
     e( 24 - 24) =     11.21028  eV     1   --> A              
     e( 25 - 25) =     16.33763  eV     1   --> A              
     e( 26 - 26) =     16.52540  eV     1   --> A              
     e( 27 - 27) =     16.53651  eV     1   --> A              
     e( 28 - 28) =     20.24972  eV     1   --> A              
     e( 29 - 29) =     24.63645  eV     1   --> A              
     e( 30 - 30) =     28.33145  eV     1   --> A              
     e( 31 - 31) =     28.61502  eV     1   --> A              
     e( 32 - 32) =     31.48466  eV     1   --> A              
     e( 33 - 33) =     33.31053  eV     1   --> A              
     e( 34 - 34) =     33.31078  eV     1   --> A              
     e( 35 - 35) =     33.84430  eV     1   --> A              
     e( 36 - 36) =     36.05992  eV     1   --> A              
     e( 37 - 37) =     36.61548  eV     1   --> A              
     e( 38 - 38) =     36.62057  eV     1   --> A              
     e( 39 - 39) =     37.19629  eV     1   --> A              
     e( 40 - 40) =     39.43533  eV     1   --> A              
     e( 41 - 41) =     40.25168  eV     1   --> A              
     e( 42 - 42) =     40.97909  eV     1   --> A              
     e( 43 - 43) =     40.99049  eV     1   --> A              
     e( 44 - 44) =     41.78942  eV     1   --> A              
     e( 45 - 45) =     43.53567  eV     1   --> A              
     e( 46 - 46) =     43.78577  eV     1   --> A              
     e( 47 - 47) =     50.17972  eV     1   --> A              
     e( 48 - 48) =     50.79088  eV     1   --> A              
     e( 49 - 49) =     50.79331  eV     1   --> A              
     e( 50 - 50) =     51.77641  eV     1   --> A              
     e( 51 - 51) =     54.70520  eV     1   --> A              
     e( 52 - 52) =     54.72826  eV     1   --> A              
     e( 53 - 53) =     56.05921  eV     1   --> A              
     e( 54 - 54) =     57.71922  eV     1   --> A              
     e( 55 - 55) =     58.80944  eV     1   --> A              
     e( 56 - 56) =     59.10693  eV     1   --> A              
     e( 57 - 57) =     64.81903  eV     1   --> A              
     e( 58 - 58) =     65.85992  eV     1   --> A              
     e( 59 - 59) =     66.72385  eV     1   --> A              
     e( 60 - 60) =     66.72421  eV     1   --> A              
     e( 61 - 61) =     68.13159  eV     1   --> A              
     e( 62 - 62) =     68.21838  eV     1   --> A              
     e( 63 - 63) =     70.97266  eV     1   --> A              
     e( 64 - 64) =     70.97386  eV     1   --> A              
     e( 65 - 65) =     70.97503  eV     1   --> A              
     e( 66 - 66) =     71.88122  eV     1   --> A              
     e( 67 - 67) =     72.38648  eV     1   --> A              
     e( 68 - 68) =     72.40162  eV     1   --> A              
     e( 69 - 69) =     72.55237  eV     1   --> A              
     e( 70 - 70) =     72.55653  eV     1   --> A              
     e( 71 - 71) =     72.87030  eV     1   --> A              
     e( 72 - 72) =     73.78561  eV     1   --> A              
     e( 73 - 73) =     74.23269  eV     1   --> A              
     e( 74 - 74) =     78.51607  eV     1   --> A              
     e( 75 - 75) =     79.11255  eV     1   --> A              
     e( 76 - 76) =     79.87439  eV     1   --> A              
     e( 77 - 77) =     80.69662  eV     1   --> A              
     e( 78 - 78) =     83.81518  eV     1   --> A              
     e( 79 - 79) =     83.88047  eV     1   --> A              
     e( 80 - 80) =     87.32368  eV     1   --> A              
     e( 81 - 81) =     87.61070  eV     1   --> A              
     e( 82 - 82) =     87.63350  eV     1   --> A              
     e( 83 - 83) =     87.63592  eV     1   --> A              
     e( 84 - 84) =     89.40897  eV     1   --> A              
     e( 85 - 85) =     89.83935  eV     1   --> A              
     e( 86 - 86) =     89.89989  eV     1   --> A              
     e( 87 - 87) =     90.42040  eV     1   --> A              
     e( 88 - 88) =     90.72263  eV     1   --> A              
     e( 89 - 89) =     91.83908  eV     1   --> A              
     e( 90 - 90) =     91.99169  eV     1   --> A              
     e( 91 - 91) =     91.99237  eV     1   --> A              
     e( 92 - 92) =     92.13391  eV     1   --> A              
     e( 93 - 93) =     92.64709  eV     1   --> A              
     e( 94 - 94) =     93.87508  eV     1   --> A              
     e( 95 - 95) =     93.88972  eV     1   --> A              
     e( 96 - 96) =     94.21144  eV     1   --> A              
     e( 97 - 97) =     95.22501  eV     1   --> A              
     e( 98 - 98) =     95.41021  eV     1   --> A              
     e( 99 - 99) =     96.03475  eV     1   --> A              
     e(100 -100) =     96.03773  eV     1   --> A              

 **************************************************************************

 **************************************************************************

                    xk=(   0.00000,  -0.10768,  -0.06594  )

     Band symmetry, C_1 (1)     point group:

     e(  1 -  1) =    -90.64503  eV     1   --> A              
     e(  2 -  2) =    -88.50523  eV     1   --> A              
     e(  3 -  3) =    -50.97565  eV     1   --> A              
     e(  4 -  4) =    -50.96143  eV     1   --> A              
     e(  5 -  5) =    -50.96063  eV     1   --> A              
     e(  6 -  6) =    -48.88706  eV     1   --> A              
     e(  7 -  7) =    -48.87276  eV     1   --> A              
     e(  8 -  8) =    -48.87184  eV     1   --> A              
     e(  9 -  9) =     -5.50406  eV     1   --> A              
     e( 10 - 10) =     -4.06505  eV     1   --> A              
     e( 11 - 11) =      2.85121  eV     1   --> A              
     e( 12 - 12) =      5.90407  eV     1   --> A              
     e( 13 - 13) =      5.94749  eV     1   --> A              
     e( 14 - 14) =      8.42392  eV     1   --> A              
     e( 15 - 15) =      8.53214  eV     1   --> A              
     e( 16 - 16) =      8.68871  eV     1   --> A              
     e( 17 - 17) =      9.25374  eV     1   --> A              
     e( 18 - 18) =      9.51731  eV     1   --> A              
     e( 19 - 19) =      9.70615  eV     1   --> A              
     e( 20 - 20) =      9.81877  eV     1   --> A              
     e( 21 - 21) =      9.95751  eV     1   --> A              
     e( 22 - 22) =     10.65146  eV     1   --> A              
     e( 23 - 23) =     11.17823  eV     1   --> A              
     e( 24 - 24) =     11.22731  eV     1   --> A              
     e( 25 - 25) =     16.42529  eV     1   --> A              
     e( 26 - 26) =     16.51134  eV     1   --> A              
     e( 27 - 27) =     16.52742  eV     1   --> A              
     e( 28 - 28) =     20.33002  eV     1   --> A              
     e( 29 - 29) =     24.61712  eV     1   --> A              
     e( 30 - 30) =     28.22261  eV     1   --> A              
     e( 31 - 31) =     28.65502  eV     1   --> A              
     e( 32 - 32) =     31.20323  eV     1   --> A              
     e( 33 - 33) =     33.26803  eV     1   --> A              
     e( 34 - 34) =     33.26842  eV     1   --> A              
     e( 35 - 35) =     33.98306  eV     1   --> A              
     e( 36 - 36) =     36.21363  eV     1   --> A              
     e( 37 - 37) =     36.50804  eV     1   --> A              
     e( 38 - 38) =     36.51196  eV     1   --> A              
     e( 39 - 39) =     37.37696  eV     1   --> A              
     e( 40 - 40) =     39.15724  eV     1   --> A              
     e( 41 - 41) =     40.26412  eV     1   --> A              
     e( 42 - 42) =     41.19426  eV     1   --> A              
     e( 43 - 43) =     41.20252  eV     1   --> A              
     e( 44 - 44) =     41.93419  eV     1   --> A              
     e( 45 - 45) =     43.58912  eV     1   --> A              
     e( 46 - 46) =     43.96531  eV     1   --> A              
     e( 47 - 47) =     49.99354  eV     1   --> A              
     e( 48 - 48) =     50.78669  eV     1   --> A              
     e( 49 - 49) =     50.78912  eV     1   --> A              
     e( 50 - 50) =     52.00208  eV     1   --> A              
     e( 51 - 51) =     54.64709  eV     1   --> A              
     e( 52 - 52) =     54.67519  eV     1   --> A              
     e( 53 - 53) =     55.90609  eV     1   --> A              
     e( 54 - 54) =     57.93263  eV     1   --> A              
     e( 55 - 55) =     58.72439  eV     1   --> A              
     e( 56 - 56) =     59.20232  eV     1   --> A              
     e( 57 - 57) =     64.46761  eV     1   --> A              
     e( 58 - 58) =     65.93061  eV     1   --> A              
     e( 59 - 59) =     66.21828  eV     1   --> A              
     e( 60 - 60) =     66.22189  eV     1   --> A              
     e( 61 - 61) =     68.16252  eV     1   --> A              
     e( 62 - 62) =     68.41334  eV     1   --> A              
     e( 63 - 63) =     70.97462  eV     1   --> A              
     e( 64 - 64) =     70.99145  eV     1   --> A              
     e( 65 - 65) =     70.99194  eV     1   --> A              
     e( 66 - 66) =     71.49342  eV     1   --> A              
     e( 67 - 67) =     72.24209  eV     1   --> A              
     e( 68 - 68) =     72.60987  eV     1   --> A              
     e( 69 - 69) =     72.93749  eV     1   --> A              
     e( 70 - 70) =     72.97302  eV     1   --> A              
     e( 71 - 71) =     72.98413  eV     1   --> A              
     e( 72 - 72) =     73.90368  eV     1   --> A              
     e( 73 - 73) =     74.24666  eV     1   --> A              
     e( 74 - 74) =     78.65867  eV     1   --> A              
     e( 75 - 75) =     79.04042  eV     1   --> A              
     e( 76 - 76) =     79.82702  eV     1   --> A              
     e( 77 - 77) =     80.65035  eV     1   --> A              
     e( 78 - 78) =     84.27826  eV     1   --> A              
     e( 79 - 79) =     84.33100  eV     1   --> A              
     e( 80 - 80) =     86.68889  eV     1   --> A              
     e( 81 - 81) =     87.37702  eV     1   --> A              
     e( 82 - 82) =     87.39720  eV     1   --> A              
     e( 83 - 83) =     87.39828  eV     1   --> A              
     e( 84 - 84) =     89.15961  eV     1   --> A              
     e( 85 - 85) =     89.40997  eV     1   --> A              
     e( 86 - 86) =     89.48927  eV     1   --> A              
     e( 87 - 87) =     90.18638  eV     1   --> A              
     e( 88 - 88) =     90.48794  eV     1   --> A              
     e( 89 - 89) =     91.30471  eV     1   --> A              
     e( 90 - 90) =     91.57964  eV     1   --> A              
     e( 91 - 91) =     91.58106  eV     1   --> A              
     e( 92 - 92) =     92.34966  eV     1   --> A              
     e( 93 - 93) =     92.38958  eV     1   --> A              
     e( 94 - 94) =     93.91901  eV     1   --> A              
     e( 95 - 95) =     93.92970  eV     1   --> A              
     e( 96 - 96) =     94.49618  eV     1   --> A              
     e( 97 - 97) =     95.50150  eV     1   --> A              
     e( 98 - 98) =     95.74771  eV     1   --> A              
     e( 99 - 99) =     96.43662  eV     1   --> A              
     e(100 -100) =     96.44067  eV     1   --> A              

 **************************************************************************

 **************************************************************************

                    xk=(   0.00000,  -0.12922,  -0.07913  )

     Band symmetry, C_1 (1)     point group:

     e(  1 -  1) =    -90.64510  eV     1   --> A              
     e(  2 -  2) =    -88.50545  eV     1   --> A              
     e(  3 -  3) =    -50.97580  eV     1   --> A              
     e(  4 -  4) =    -50.96192  eV     1   --> A              
     e(  5 -  5) =    -50.96086  eV     1   --> A              
     e(  6 -  6) =    -48.88721  eV     1   --> A              
     e(  7 -  7) =    -48.87336  eV     1   --> A              
     e(  8 -  8) =    -48.87202  eV     1   --> A              
     e(  9 -  9) =     -5.49348  eV     1   --> A              
     e( 10 - 10) =     -4.07050  eV     1   --> A              
     e( 11 - 11) =      2.90040  eV     1   --> A              
     e( 12 - 12) =      5.89285  eV     1   --> A              
     e( 13 - 13) =      5.95456  eV     1   --> A              
     e( 14 - 14) =      8.33870  eV     1   --> A              
     e( 15 - 15) =      8.50606  eV     1   --> A              
     e( 16 - 16) =      8.67879  eV     1   --> A              
     e( 17 - 17) =      9.16968  eV     1   --> A              
     e( 18 - 18) =      9.50419  eV     1   --> A              
     e( 19 - 19) =      9.69053  eV     1   --> A              
     e( 20 - 20) =      9.83649  eV     1   --> A              
     e( 21 - 21) =      9.99846  eV     1   --> A              
     e( 22 - 22) =     10.64513  eV     1   --> A              
     e( 23 - 23) =     11.17965  eV     1   --> A              
     e( 24 - 24) =     11.24698  eV     1   --> A              
     e( 25 - 25) =     16.49595  eV     1   --> A              
     e( 26 - 26) =     16.51685  eV     1   --> A              
     e( 27 - 27) =     16.52875  eV     1   --> A              
     e( 28 - 28) =     20.42505  eV     1   --> A              
     e( 29 - 29) =     24.59366  eV     1   --> A              
     e( 30 - 30) =     28.09798  eV     1   --> A              
     e( 31 - 31) =     28.70324  eV     1   --> A              
     e( 32 - 32) =     30.91053  eV     1   --> A              
     e( 33 - 33) =     33.21225  eV     1   --> A              
     e( 34 - 34) =     33.21285  eV     1   --> A              
     e( 35 - 35) =     34.10577  eV     1   --> A              
     e( 36 - 36) =     36.36688  eV     1   --> A              
     e( 37 - 37) =     36.40276  eV     1   --> A              
     e( 38 - 38) =     36.41089  eV     1   --> A              
     e( 39 - 39) =     37.59383  eV     1   --> A              
     e( 40 - 40) =     38.89319  eV     1   --> A              
     e( 41 - 41) =     40.27731  eV     1   --> A              
     e( 42 - 42) =     41.43796  eV     1   --> A              
     e( 43 - 43) =     41.44427  eV     1   --> A              
     e( 44 - 44) =     42.06474  eV     1   --> A              
     e( 45 - 45) =     43.65359  eV     1   --> A              
     e( 46 - 46) =     44.16799  eV     1   --> A              
     e( 47 - 47) =     49.80356  eV     1   --> A              
     e( 48 - 48) =     50.78158  eV     1   --> A              
     e( 49 - 49) =     50.78400  eV     1   --> A              
     e( 50 - 50) =     52.24096  eV     1   --> A              
     e( 51 - 51) =     54.58469  eV     1   --> A              
     e( 52 - 52) =     54.61162  eV     1   --> A              
     e( 53 - 53) =     55.76388  eV     1   --> A              
     e( 54 - 54) =     58.12232  eV     1   --> A              
     e( 55 - 55) =     58.62472  eV     1   --> A              
     e( 56 - 56) =     59.33718  eV     1   --> A              
     e( 57 - 57) =     64.10120  eV     1   --> A              
     e( 58 - 58) =     65.69539  eV     1   --> A              
     e( 59 - 59) =     65.70335  eV     1   --> A              
     e( 60 - 60) =     66.00837  eV     1   --> A              
     e( 61 - 61) =     68.20031  eV     1   --> A              
     e( 62 - 62) =     68.59461  eV     1   --> A              
     e( 63 - 63) =     70.97231  eV     1   --> A              
     e( 64 - 64) =     71.00678  eV     1   --> A              
     e( 65 - 65) =     71.01420  eV     1   --> A              
     e( 66 - 66) =     71.07454  eV     1   --> A              
     e( 67 - 67) =     71.94668  eV     1   --> A              
     e( 68 - 68) =     72.70127  eV     1   --> A              
     e( 69 - 69) =     73.01743  eV     1   --> A              
     e( 70 - 70) =     73.56569  eV     1   --> A              
     e( 71 - 71) =     73.56816  eV     1   --> A              
     e( 72 - 72) =     74.04979  eV     1   --> A              
     e( 73 - 73) =     74.26186  eV     1   --> A              
     e( 74 - 74) =     78.21150  eV     1   --> A              
     e( 75 - 75) =     79.36765  eV     1   --> A              
     e( 76 - 76) =     80.03217  eV     1   --> A              
     e( 77 - 77) =     80.60137  eV     1   --> A              
     e( 78 - 78) =     84.63147  eV     1   --> A              
     e( 79 - 79) =     84.89366  eV     1   --> A              
     e( 80 - 80) =     86.05552  eV     1   --> A              
     e( 81 - 81) =     87.06949  eV     1   --> A              
     e( 82 - 82) =     87.06987  eV     1   --> A              
     e( 83 - 83) =     87.08058  eV     1   --> A              
     e( 84 - 84) =     88.87043  eV     1   --> A              
     e( 85 - 85) =     88.99833  eV     1   --> A              
     e( 86 - 86) =     89.12472  eV     1   --> A              
     e( 87 - 87) =     89.94422  eV     1   --> A              
     e( 88 - 88) =     90.21053  eV     1   --> A              
     e( 89 - 89) =     90.76496  eV     1   --> A              
     e( 90 - 90) =     91.17940  eV     1   --> A              
     e( 91 - 91) =     91.18049  eV     1   --> A              
     e( 92 - 92) =     92.08566  eV     1   --> A              
     e( 93 - 93) =     92.65659  eV     1   --> A              
     e( 94 - 94) =     93.95783  eV     1   --> A              
     e( 95 - 95) =     93.96730  eV     1   --> A              
     e( 96 - 96) =     94.81616  eV     1   --> A              
     e( 97 - 97) =     95.63844  eV     1   --> A              
     e( 98 - 98) =     96.18032  eV     1   --> A              
     e( 99 - 99) =     96.83007  eV     1   --> A              
     e(100 -100) =     96.83599  eV     1   --> A              

 **************************************************************************

 **************************************************************************

                    xk=(   0.00000,  -0.15076,  -0.09232  )

     Band symmetry, C_1 (1)     point group:

     e(  1 -  1) =    -90.64517  eV     1   --> A              
     e(  2 -  2) =    -88.50570  eV     1   --> A              
     e(  3 -  3) =    -50.97598  eV     1   --> A              
     e(  4 -  4) =    -50.96252  eV     1   --> A              
     e(  5 -  5) =    -50.96109  eV     1   --> A              
     e(  6 -  6) =    -48.88739  eV     1   --> A              
     e(  7 -  7) =    -48.87406  eV     1   --> A              
     e(  8 -  8) =    -48.87224  eV     1   --> A              
     e(  9 -  9) =     -5.48079  eV     1   --> A              
     e( 10 - 10) =     -4.07672  eV     1   --> A              
     e( 11 - 11) =      2.95781  eV     1   --> A              
     e( 12 - 12) =      5.87998  eV     1   --> A              
     e( 13 - 13) =      5.96269  eV     1   --> A              
     e( 14 - 14) =      8.23447  eV     1   --> A              
     e( 15 - 15) =      8.47605  eV     1   --> A              
     e( 16 - 16) =      8.66596  eV     1   --> A              
     e( 17 - 17) =      9.08749  eV     1   --> A              
     e( 18 - 18) =      9.49269  eV     1   --> A              
     e( 19 - 19) =      9.67600  eV     1   --> A              
     e( 20 - 20) =      9.85394  eV     1   --> A              
     e( 21 - 21) =     10.03561  eV     1   --> A              
     e( 22 - 22) =     10.63764  eV     1   --> A              
     e( 23 - 23) =     11.18175  eV     1   --> A              
     e( 24 - 24) =     11.26871  eV     1   --> A              
     e( 25 - 25) =     16.48009  eV     1   --> A              
     e( 26 - 26) =     16.50512  eV     1   --> A              
     e( 27 - 27) =     16.64615  eV     1   --> A              
     e( 28 - 28) =     20.53318  eV     1   --> A              
     e( 29 - 29) =     24.56622  eV     1   --> A              
     e( 30 - 30) =     27.96122  eV     1   --> A              
     e( 31 - 31) =     28.75928  eV     1   --> A              
     e( 32 - 32) =     30.61125  eV     1   --> A              
     e( 33 - 33) =     33.14150  eV     1   --> A              
     e( 34 - 34) =     33.14237  eV     1   --> A              
     e( 35 - 35) =     34.21132  eV     1   --> A              
     e( 36 - 36) =     36.29456  eV     1   --> A              
     e( 37 - 37) =     36.30046  eV     1   --> A              
     e( 38 - 38) =     36.53480  eV     1   --> A              
     e( 39 - 39) =     37.84353  eV     1   --> A              
     e( 40 - 40) =     38.66660  eV     1   --> A              
     e( 41 - 41) =     40.29235  eV     1   --> A              
     e( 42 - 42) =     41.70284  eV     1   --> A              
     e( 43 - 43) =     41.70887  eV     1   --> A              
     e( 44 - 44) =     42.18487  eV     1   --> A              
     e( 45 - 45) =     43.72863  eV     1   --> A              
     e( 46 - 46) =     44.38489  eV     1   --> A              
     e( 47 - 47) =     49.60947  eV     1   --> A              
     e( 48 - 48) =     50.77559  eV     1   --> A              
     e( 49 - 49) =     50.77801  eV     1   --> A              
     e( 50 - 50) =     52.49378  eV     1   --> A              
     e( 51 - 51) =     54.52233  eV     1   --> A              
     e( 52 - 52) =     54.53831  eV     1   --> A              
     e( 53 - 53) =     55.63087  eV     1   --> A              
     e( 54 - 54) =     58.27942  eV     1   --> A              
     e( 55 - 55) =     58.51201  eV     1   --> A              
     e( 56 - 56) =     59.51750  eV     1   --> A              
     e( 57 - 57) =     63.72868  eV     1   --> A              
     e( 58 - 58) =     65.18332  eV     1   --> A              
     e( 59 - 59) =     65.18780  eV     1   --> A              
     e( 60 - 60) =     66.04629  eV     1   --> A              
     e( 61 - 61) =     68.24494  eV     1   --> A              
     e( 62 - 62) =     68.75906  eV     1   --> A              
     e( 63 - 63) =     70.63622  eV     1   --> A              
     e( 64 - 64) =     70.96701  eV     1   --> A              
     e( 65 - 65) =     71.04079  eV     1   --> A              
     e( 66 - 66) =     71.04278  eV     1   --> A              
     e( 67 - 67) =     71.66401  eV     1   --> A              
     e( 68 - 68) =     72.78474  eV     1   --> A              
     e( 69 - 69) =     73.09284  eV     1   --> A              
     e( 70 - 70) =     74.16614  eV     1   --> A              
     e( 71 - 71) =     74.17238  eV     1   --> A              
     e( 72 - 72) =     74.22876  eV     1   --> A              
     e( 73 - 73) =     74.27713  eV     1   --> A              
     e( 74 - 74) =     77.79125  eV     1   --> A              
     e( 75 - 75) =     79.41593  eV     1   --> A              
     e( 76 - 76) =     80.54680  eV     1   --> A              
     e( 77 - 77) =     80.56319  eV     1   --> A              
     e( 78 - 78) =     84.82223  eV     1   --> A              
     e( 79 - 79) =     85.49108  eV     1   --> A              
     e( 80 - 80) =     85.53612  eV     1   --> A              
     e( 81 - 81) =     86.64105  eV     1   --> A              
     e( 82 - 82) =     86.64234  eV     1   --> A              
     e( 83 - 83) =     86.72362  eV     1   --> A              
     e( 84 - 84) =     88.55872  eV     1   --> A              
     e( 85 - 85) =     88.63070  eV     1   --> A              
     e( 86 - 86) =     88.82139  eV     1   --> A              
     e( 87 - 87) =     89.69819  eV     1   --> A              
     e( 88 - 88) =     89.94377  eV     1   --> A              
     e( 89 - 89) =     90.22501  eV     1   --> A              
     e( 90 - 90) =     90.79426  eV     1   --> A              
     e( 91 - 91) =     90.79495  eV     1   --> A              
     e( 92 - 92) =     91.79011  eV     1   --> A              
     e( 93 - 93) =     92.96154  eV     1   --> A              
     e( 94 - 94) =     93.99421  eV     1   --> A              
     e( 95 - 95) =     94.00405  eV     1   --> A              
     e( 96 - 96) =     95.16094  eV     1   --> A              
     e( 97 - 97) =     95.72965  eV     1   --> A              
     e( 98 - 98) =     96.59652  eV     1   --> A              
     e( 99 - 99) =     96.73517  eV     1   --> A              
     e(100 -100) =     96.73933  eV     1   --> A              

 **************************************************************************

 **************************************************************************

                    xk=(   0.00000,  -0.17229,  -0.10551  )

     Band symmetry, C_1 (1)     point group:

     e(  1 -  1) =    -90.64525  eV     1   --> A              
     e(  2 -  2) =    -88.50597  eV     1   --> A              
     e(  3 -  3) =    -50.97618  eV     1   --> A              
     e(  4 -  4) =    -50.96322  eV     1   --> A              
     e(  5 -  5) =    -50.96133  eV     1   --> A              
     e(  6 -  6) =    -48.88759  eV     1   --> A              
     e(  7 -  7) =    -48.87485  eV     1   --> A              
     e(  8 -  8) =    -48.87248  eV     1   --> A              
     e(  9 -  9) =     -5.46590  eV     1   --> A              
     e( 10 - 10) =     -4.08363  eV     1   --> A              
     e( 11 - 11) =      3.02309  eV     1   --> A              
     e( 12 - 12) =      5.86567  eV     1   --> A              
     e( 13 - 13) =      5.97180  eV     1   --> A              
     e( 14 - 14) =      8.11174  eV     1   --> A              
     e( 15 - 15) =      8.44259  eV     1   --> A              
     e( 16 - 16) =      8.64777  eV     1   --> A              
     e( 17 - 17) =      9.01053  eV     1   --> A              
     e( 18 - 18) =      9.48319  eV     1   --> A              
     e( 19 - 19) =      9.66330  eV     1   --> A              
     e( 20 - 20) =      9.87084  eV     1   --> A              
     e( 21 - 21) =     10.06874  eV     1   --> A              
     e( 22 - 22) =     10.62904  eV     1   --> A              
     e( 23 - 23) =     11.18469  eV     1   --> A              
     e( 24 - 24) =     11.29185  eV     1   --> A              
     e( 25 - 25) =     16.46451  eV     1   --> A              
     e( 26 - 26) =     16.49255  eV     1   --> A              
     e( 27 - 27) =     16.77568  eV     1   --> A              
     e( 28 - 28) =     20.65263  eV     1   --> A              
     e( 29 - 29) =     24.53501  eV     1   --> A              
     e( 30 - 30) =     27.81584  eV     1   --> A              
     e( 31 - 31) =     28.82269  eV     1   --> A              
     e( 32 - 32) =     30.30850  eV     1   --> A              
     e( 33 - 33) =     33.05439  eV     1   --> A              
     e( 34 - 34) =     33.05560  eV     1   --> A              
     e( 35 - 35) =     34.30078  eV     1   --> A              
     e( 36 - 36) =     36.20645  eV     1   --> A              
     e( 37 - 37) =     36.21107  eV     1   --> A              
     e( 38 - 38) =     36.64070  eV     1   --> A              
     e( 39 - 39) =     38.12216  eV     1   --> A              
     e( 40 - 40) =     38.51275  eV     1   --> A              
     e( 41 - 41) =     40.31025  eV     1   --> A              
     e( 42 - 42) =     41.98119  eV     1   --> A              
     e( 43 - 43) =     41.99067  eV     1   --> A              
     e( 44 - 44) =     42.30071  eV     1   --> A              
     e( 45 - 45) =     43.81378  eV     1   --> A              
     e( 46 - 46) =     44.60769  eV     1   --> A              
     e( 47 - 47) =     49.41103  eV     1   --> A              
     e( 48 - 48) =     50.76882  eV     1   --> A              
     e( 49 - 49) =     50.77124  eV     1   --> A              
     e( 50 - 50) =     52.76122  eV     1   --> A              
     e( 51 - 51) =     54.45618  eV     1   --> A              
     e( 52 - 52) =     54.46431  eV     1   --> A              
     e( 53 - 53) =     55.50534  eV     1   --> A              
     e( 54 - 54) =     58.38755  eV     1   --> A              
     e( 55 - 55) =     58.40199  eV     1   --> A              
     e( 56 - 56) =     59.74140  eV     1   --> A              
     e( 57 - 57) =     63.35763  eV     1   --> A              
     e( 58 - 58) =     64.67292  eV     1   --> A              
     e( 59 - 59) =     64.67674  eV     1   --> A              
     e( 60 - 60) =     66.04307  eV     1   --> A              
     e( 61 - 61) =     68.29639  eV     1   --> A              
     e( 62 - 62) =     68.90706  eV     1   --> A              
     e( 63 - 63) =     70.22535  eV     1   --> A              
     e( 64 - 64) =     70.95752  eV     1   --> A              
     e( 65 - 65) =     71.07118  eV     1   --> A              
     e( 66 - 66) =     71.07205  eV     1   --> A              
     e( 67 - 67) =     71.40536  eV     1   --> A              
     e( 68 - 68) =     72.84300  eV     1   --> A              
     e( 69 - 69) =     73.16743  eV     1   --> A              
     e( 70 - 70) =     74.29046  eV     1   --> A              
     e( 71 - 71) =     74.41306  eV     1   --> A              
     e( 72 - 72) =     74.78685  eV     1   --> A              
     e( 73 - 73) =     74.79024  eV     1   --> A              
     e( 74 - 74) =     77.41810  eV     1   --> A              
     e( 75 - 75) =     79.40605  eV     1   --> A              
     e( 76 - 76) =     80.48478  eV     1   --> A              
     e( 77 - 77) =     81.19187  eV     1   --> A              
     e( 78 - 78) =     84.47417  eV     1   --> A              
     e( 79 - 79) =     85.49984  eV     1   --> A              
     e( 80 - 80) =     86.04716  eV     1   --> A              
     e( 81 - 81) =     86.12146  eV     1   --> A              
     e( 82 - 82) =     86.19118  eV     1   --> A              
     e( 83 - 83) =     86.31532  eV     1   --> A              
     e( 84 - 84) =     88.25767  eV     1   --> A              
     e( 85 - 85) =     88.30848  eV     1   --> A              
     e( 86 - 86) =     88.55548  eV     1   --> A              
     e( 87 - 87) =     89.45824  eV     1   --> A              
     e( 88 - 88) =     89.68768  eV     1   --> A              
     e( 89 - 89) =     89.69496  eV     1   --> A              
     e( 90 - 90) =     90.42663  eV     1   --> A              
     e( 91 - 91) =     90.42700  eV     1   --> A              
     e( 92 - 92) =     91.50635  eV     1   --> A              
     e( 93 - 93) =     93.25728  eV     1   --> A              
     e( 94 - 94) =     94.02906  eV     1   --> A              
     e( 95 - 95) =     94.04086  eV     1   --> A              
     e( 96 - 96) =     95.52175  eV     1   --> A              
     e( 97 - 97) =     95.77248  eV     1   --> A              
     e( 98 - 98) =     96.41496  eV     1   --> A              
     e( 99 - 99) =     96.42190  eV     1   --> A              
     e(100 -100) =     96.99062  eV     1   --> A              

 **************************************************************************

 **************************************************************************

                    xk=(   0.00000,  -0.19383,  -0.11870  )

     Band symmetry, C_1 (1)     point group:

     e(  1 -  1) =    -90.64533  eV     1   --> A              
     e(  2 -  2) =    -88.50625  eV     1   --> A              
     e(  3 -  3) =    -50.97640  eV     1   --> A              
     e(  4 -  4) =    -50.96401  eV     1   --> A              
     e(  5 -  5) =    -50.96160  eV     1   --> A              
     e(  6 -  6) =    -48.88781  eV     1   --> A              
     e(  7 -  7) =    -48.87573  eV     1   --> A              
     e(  8 -  8) =    -48.87275  eV     1   --> A              
     e(  9 -  9) =     -5.44873  eV     1   --> A              
     e( 10 - 10) =     -4.09111  eV     1   --> A              
     e( 11 - 11) =      3.09581  eV     1   --> A              
     e( 12 - 12) =      5.85016  eV     1   --> A              
     e( 13 - 13) =      5.98176  eV     1   --> A              
     e( 14 - 14) =      7.97176  eV     1   --> A              
     e( 15 - 15) =      8.40624  eV     1   --> A              
     e( 16 - 16) =      8.62056  eV     1   --> A              
     e( 17 - 17) =      8.94292  eV     1   --> A              
     e( 18 - 18) =      9.47584  eV     1   --> A              
     e( 19 - 19) =      9.65281  eV     1   --> A              
     e( 20 - 20) =      9.88703  eV     1   --> A              
     e( 21 - 21) =     10.09771  eV     1   --> A              
     e( 22 - 22) =     10.61945  eV     1   --> A              
     e( 23 - 23) =     11.18865  eV     1   --> A              
     e( 24 - 24) =     11.31576  eV     1   --> A              
     e( 25 - 25) =     16.44991  eV     1   --> A              
     e( 26 - 26) =     16.47951  eV     1   --> A              
     e( 27 - 27) =     16.91553  eV     1   --> A              
     e( 28 - 28) =     20.78152  eV     1   --> A              
     e( 29 - 29) =     24.50034  eV     1   --> A              
     e( 30 - 30) =     27.66506  eV     1   --> A              
     e( 31 - 31) =     28.89295  eV     1   --> A              
     e( 32 - 32) =     30.00448  eV     1   --> A              
     e( 33 - 33) =     32.95013  eV     1   --> A              
     e( 34 - 34) =     32.95172  eV     1   --> A              
     e( 35 - 35) =     34.37622  eV     1   --> A              
     e( 36 - 36) =     36.13504  eV     1   --> A              
     e( 37 - 37) =     36.13898  eV     1   --> A              
     e( 38 - 38) =     36.65687  eV     1   --> A              
     e( 39 - 39) =     38.42565  eV     1   --> A              
     e( 40 - 40) =     38.47463  eV     1   --> A              
     e( 41 - 41) =     40.33192  eV     1   --> A              
     e( 42 - 42) =     42.25562  eV     1   --> A              
     e( 43 - 43) =     42.28499  eV     1   --> A              
     e( 44 - 44) =     42.42867  eV     1   --> A              
     e( 45 - 45) =     43.90860  eV     1   --> A              
     e( 46 - 46) =     44.82923  eV     1   --> A              
     e( 47 - 47) =     49.20829  eV     1   --> A              
     e( 48 - 48) =     50.76144  eV     1   --> A              
     e( 49 - 49) =     50.76385  eV     1   --> A              
     e( 50 - 50) =     53.04379  eV     1   --> A              
     e( 51 - 51) =     54.36625  eV     1   --> A              
     e( 52 - 52) =     54.41462  eV     1   --> A              
     e( 53 - 53) =     55.38583  eV     1   --> A              
     e( 54 - 54) =     58.25219  eV     1   --> A              
     e( 55 - 55) =     58.49493  eV     1   --> A              
     e( 56 - 56) =     59.99795  eV     1   --> A              
     e( 57 - 57) =     62.99659  eV     1   --> A              
     e( 58 - 58) =     64.17001  eV     1   --> A              
     e( 59 - 59) =     64.17361  eV     1   --> A              
     e( 60 - 60) =     65.97744  eV     1   --> A              
     e( 61 - 61) =     68.35463  eV     1   --> A              
     e( 62 - 62) =     69.04090  eV     1   --> A              
     e( 63 - 63) =     69.83586  eV     1   --> A              
     e( 64 - 64) =     70.94244  eV     1   --> A              
     e( 65 - 65) =     71.10382  eV     1   --> A              
     e( 66 - 66) =     71.10533  eV     1   --> A              
     e( 67 - 67) =     71.19487  eV     1   --> A              
     e( 68 - 68) =     72.85442  eV     1   --> A              
     e( 69 - 69) =     73.23816  eV     1   --> A              
     e( 70 - 70) =     74.30076  eV     1   --> A              
     e( 71 - 71) =     74.62722  eV     1   --> A              
     e( 72 - 72) =     75.40446  eV     1   --> A              
     e( 73 - 73) =     75.40699  eV     1   --> A              
     e( 74 - 74) =     77.11317  eV     1   --> A              
     e( 75 - 75) =     79.40154  eV     1   --> A              
     e( 76 - 76) =     80.41354  eV     1   --> A              
     e( 77 - 77) =     81.84790  eV     1   --> A              
     e( 78 - 78) =     83.86051  eV     1   --> A              
     e( 79 - 79) =     85.51932  eV     1   --> A              
     e( 80 - 80) =     85.52323  eV     1   --> A              
     e( 81 - 81) =     85.67464  eV     1   --> A              
     e( 82 - 82) =     85.87423  eV     1   --> A              
     e( 83 - 83) =     86.76086  eV     1   --> A              
     e( 84 - 84) =     87.97456  eV     1   --> A              
     e( 85 - 85) =     88.01703  eV     1   --> A              
     e( 86 - 86) =     88.32012  eV     1   --> A              
     e( 87 - 87) =     89.15470  eV     1   --> A              
     e( 88 - 88) =     89.23696  eV     1   --> A              
     e( 89 - 89) =     89.45377  eV     1   --> A              
     e( 90 - 90) =     90.07864  eV     1   --> A              
     e( 91 - 91) =     90.07888  eV     1   --> A              
     e( 92 - 92) =     91.25128  eV     1   --> A              
     e( 93 - 93) =     93.53266  eV     1   --> A              
     e( 94 - 94) =     94.06246  eV     1   --> A              
     e( 95 - 95) =     94.07879  eV     1   --> A              
     e( 96 - 96) =     95.76319  eV     1   --> A              
     e( 97 - 97) =     95.87671  eV     1   --> A              
     e( 98 - 98) =     96.11569  eV     1   --> A              
     e( 99 - 99) =     96.14321  eV     1   --> A              
     e(100 -100) =     97.36263  eV     1   --> A              

 **************************************************************************

 **************************************************************************

                    xk=(   0.00000,  -0.21537,  -0.13188  )

     Band symmetry, C_1 (1)     point group:

     e(  1 -  1) =    -90.64542  eV     1   --> A              
     e(  2 -  2) =    -88.50653  eV     1   --> A              
     e(  3 -  3) =    -50.97665  eV     1   --> A              
     e(  4 -  4) =    -50.96487  eV     1   --> A              
     e(  5 -  5) =    -50.96188  eV     1   --> A              
     e(  6 -  6) =    -48.88806  eV     1   --> A              
     e(  7 -  7) =    -48.87669  eV     1   --> A              
     e(  8 -  8) =    -48.87305  eV     1   --> A              
     e(  9 -  9) =     -5.42917  eV     1   --> A              
     e( 10 - 10) =     -4.09906  eV     1   --> A              
     e( 11 - 11) =      3.17552  eV     1   --> A              
     e( 12 - 12) =      5.83375  eV     1   --> A              
     e( 13 - 13) =      5.99242  eV     1   --> A              
     e( 14 - 14) =      7.81627  eV     1   --> A              
     e( 15 - 15) =      8.36763  eV     1   --> A              
     e( 16 - 16) =      8.58014  eV     1   --> A              
     e( 17 - 17) =      8.88894  eV     1   --> A              
     e( 18 - 18) =      9.47063  eV     1   --> A              
     e( 19 - 19) =      9.64467  eV     1   --> A              
     e( 20 - 20) =      9.90246  eV     1   --> A              
     e( 21 - 21) =     10.12238  eV     1   --> A              
     e( 22 - 22) =     10.60903  eV     1   --> A              
     e( 23 - 23) =     11.19377  eV     1   --> A              
     e( 24 - 24) =     11.33982  eV     1   --> A              
     e( 25 - 25) =     16.43692  eV     1   --> A              
     e( 26 - 26) =     16.46638  eV     1   --> A              
     e( 27 - 27) =     17.06392  eV     1   --> A              
     e( 28 - 28) =     20.91780  eV     1   --> A              
     e( 29 - 29) =     24.46267  eV     1   --> A              
     e( 30 - 30) =     27.51181  eV     1   --> A              
     e( 31 - 31) =     28.96951  eV     1   --> A              
     e( 32 - 32) =     29.70091  eV     1   --> A              
     e( 33 - 33) =     32.82868  eV     1   --> A              
     e( 34 - 34) =     32.83070  eV     1   --> A              
     e( 35 - 35) =     34.44003  eV     1   --> A              
     e( 36 - 36) =     36.08350  eV     1   --> A              
     e( 37 - 37) =     36.08703  eV     1   --> A              
     e( 38 - 38) =     36.56182  eV     1   --> A              
     e( 39 - 39) =     38.57236  eV     1   --> A              
     e( 40 - 40) =     38.75019  eV     1   --> A              
     e( 41 - 41) =     40.35819  eV     1   --> A              
     e( 42 - 42) =     42.45396  eV     1   --> A              
     e( 43 - 43) =     42.58781  eV     1   --> A              
     e( 44 - 44) =     42.63982  eV     1   --> A              
     e( 45 - 45) =     44.01268  eV     1   --> A              
     e( 46 - 46) =     45.04361  eV     1   --> A              
     e( 47 - 47) =     49.00158  eV     1   --> A              
     e( 48 - 48) =     50.75372  eV     1   --> A              
     e( 49 - 49) =     50.75613  eV     1   --> A              
     e( 50 - 50) =     53.34175  eV     1   --> A              
     e( 51 - 51) =     54.26968  eV     1   --> A              
     e( 52 - 52) =     54.37674  eV     1   --> A              
     e( 53 - 53) =     55.27126  eV     1   --> A              
     e( 54 - 54) =     58.10634  eV     1   --> A              
     e( 55 - 55) =     58.56559  eV     1   --> A              
     e( 56 - 56) =     60.26840  eV     1   --> A              
     e( 57 - 57) =     62.65873  eV     1   --> A              
     e( 58 - 58) =     63.67740  eV     1   --> A              
     e( 59 - 59) =     63.68093  eV     1   --> A              
     e( 60 - 60) =     65.83613  eV     1   --> A              
     e( 61 - 61) =     68.41958  eV     1   --> A              
     e( 62 - 62) =     69.16365  eV     1   --> A              
     e( 63 - 63) =     69.46018  eV     1   --> A              
     e( 64 - 64) =     70.92019  eV     1   --> A              
     e( 65 - 65) =     71.05079  eV     1   --> A              
     e( 66 - 66) =     71.14307  eV     1   --> A              
     e( 67 - 67) =     71.14733  eV     1   --> A              
     e( 68 - 68) =     72.79653  eV     1   --> A              
     e( 69 - 69) =     73.30261  eV     1   --> A              
     e( 70 - 70) =     74.30578  eV     1   --> A              
     e( 71 - 71) =     74.85666  eV     1   --> A              
     e( 72 - 72) =     76.02102  eV     1   --> A              
     e( 73 - 73) =     76.02308  eV     1   --> A              
     e( 74 - 74) =     76.89493  eV     1   --> A              
     e( 75 - 75) =     79.41301  eV     1   --> A              
     e( 76 - 76) =     80.33082  eV     1   --> A              
     e( 77 - 77) =     82.51408  eV     1   --> A              
     e( 78 - 78) =     83.22415  eV     1   --> A              
     e( 79 - 79) =     84.88971  eV     1   --> A              
     e( 80 - 80) =     84.89135  eV     1   --> A              
     e( 81 - 81) =     85.37850  eV     1   --> A              
     e( 82 - 82) =     85.81503  eV     1   --> A              
     e( 83 - 83) =     87.33947  eV     1   --> A              
     e( 84 - 84) =     87.70209  eV     1   --> A              
     e( 85 - 85) =     87.73958  eV     1   --> A              
     e( 86 - 86) =     88.16941  eV     1   --> A              
     e( 87 - 87) =     88.62751  eV     1   --> A              
     e( 88 - 88) =     89.01844  eV     1   --> A              
     e( 89 - 89) =     89.23489  eV     1   --> A              
     e( 90 - 90) =     89.75241  eV     1   --> A              
     e( 91 - 91) =     89.75272  eV     1   --> A              
     e( 92 - 92) =     91.03806  eV     1   --> A              
     e( 93 - 93) =     93.77776  eV     1   --> A              
     e( 94 - 94) =     94.09409  eV     1   --> A              
     e( 95 - 95) =     94.12108  eV     1   --> A              
     e( 96 - 96) =     95.70231  eV     1   --> A              
     e( 97 - 97) =     95.83072  eV     1   --> A              
     e( 98 - 98) =     95.84730  eV     1   --> A              
     e( 99 - 99) =     96.30253  eV     1   --> A              
     e(100 -100) =     97.71609  eV     1   --> A              

 **************************************************************************

 **************************************************************************

                    xk=(   0.00000,  -0.23690,  -0.14507  )

     Band symmetry, C_1 (1)     point group:

     e(  1 -  1) =    -90.64550  eV     1   --> A              
     e(  2 -  2) =    -88.50681  eV     1   --> A              
     e(  3 -  3) =    -50.97693  eV     1   --> A              
     e(  4 -  4) =    -50.96580  eV     1   --> A              
     e(  5 -  5) =    -50.96219  eV     1   --> A              
     e(  6 -  6) =    -48.88833  eV     1   --> A              
     e(  7 -  7) =    -48.87772  eV     1   --> A              
     e(  8 -  8) =    -48.87337  eV     1   --> A              
     e(  9 -  9) =     -5.40713  eV     1   --> A              
     e( 10 - 10) =     -4.10737  eV     1   --> A              
     e( 11 - 11) =      3.26166  eV     1   --> A              
     e( 12 - 12) =      5.81678  eV     1   --> A              
     e( 13 - 13) =      6.00364  eV     1   --> A              
     e( 14 - 14) =      7.64728  eV     1   --> A              
     e( 15 - 15) =      8.32742  eV     1   --> A              
     e( 16 - 16) =      8.52435  eV     1   --> A              
     e( 17 - 17) =      8.85066  eV     1   --> A              
     e( 18 - 18) =      9.46743  eV     1   --> A              
     e( 19 - 19) =      9.63875  eV     1   --> A              
     e( 20 - 20) =      9.91714  eV     1   --> A              
     e( 21 - 21) =     10.14268  eV     1   --> A              
     e( 22 - 22) =     10.59802  eV     1   --> A              
     e( 23 - 23) =     11.20017  eV     1   --> A              
     e( 24 - 24) =     11.36341  eV     1   --> A              
     e( 25 - 25) =     16.42604  eV     1   --> A              
     e( 26 - 26) =     16.45355  eV     1   --> A              
     e( 27 - 27) =     17.21920  eV     1   --> A              
     e( 28 - 28) =     21.05929  eV     1   --> A              
     e( 29 - 29) =     24.42264  eV     1   --> A              
     e( 30 - 30) =     27.35867  eV     1   --> A              
     e( 31 - 31) =     29.05178  eV     1   --> A              
     e( 32 - 32) =     29.39915  eV     1   --> A              
     e( 33 - 33) =     32.69086  eV     1   --> A              
     e( 34 - 34) =     32.69335  eV     1   --> A              
     e( 35 - 35) =     34.49456  eV     1   --> A              
     e( 36 - 36) =     36.05305  eV     1   --> A              
     e( 37 - 37) =     36.05660  eV     1   --> A              
     e( 38 - 38) =     36.37680  eV     1   --> A              
     e( 39 - 39) =     38.78400  eV     1   --> A              
     e( 40 - 40) =     39.09203  eV     1   --> A              
     e( 41 - 41) =     40.38983  eV     1   --> A              
     e( 42 - 42) =     42.57700  eV     1   --> A              
     e( 43 - 43) =     42.89541  eV     1   --> A              
     e( 44 - 44) =     42.93198  eV     1   --> A              
     e( 45 - 45) =     44.12573  eV     1   --> A              
     e( 46 - 46) =     45.24614  eV     1   --> A              
     e( 47 - 47) =     48.79154  eV     1   --> A              
     e( 48 - 48) =     50.74609  eV     1   --> A              
     e( 49 - 49) =     50.74849  eV     1   --> A              
     e( 50 - 50) =     53.65497  eV     1   --> A              
     e( 51 - 51) =     54.16771  eV     1   --> A              
     e( 52 - 52) =     54.35357  eV     1   --> A              
     e( 53 - 53) =     55.16107  eV     1   --> A              
     e( 54 - 54) =     57.94994  eV     1   --> A              
     e( 55 - 55) =     58.62035  eV     1   --> A              
     e( 56 - 56) =     60.52150  eV     1   --> A              
     e( 57 - 57) =     62.37028  eV     1   --> A              
     e( 58 - 58) =     63.19713  eV     1   --> A              
     e( 59 - 59) =     63.20067  eV     1   --> A              
     e( 60 - 60) =     65.61731  eV     1   --> A              
[...]
     e( 98 - 98) =     95.00779  eV     1   --> A              
     e( 99 - 99) =     95.21525  eV     1   --> A              
     e(100 -100) =     95.89313  eV     1   --> A              

 **************************************************************************

 **************************************************************************

                    xk=(   0.00781,  -0.02591,  -0.04231  )

     Band symmetry, C_1 (1)     point group:

     e(  1 -  1) =    -90.64489  eV     1   --> A              
     e(  2 -  2) =    -88.50475  eV     1   --> A              
     e(  3 -  3) =    -50.97537  eV     1   --> A              
     e(  4 -  4) =    -50.96077  eV     1   --> A              
     e(  5 -  5) =    -50.95994  eV     1   --> A              
     e(  6 -  6) =    -48.88678  eV     1   --> A              
     e(  7 -  7) =    -48.87170  eV     1   --> A              
     e(  8 -  8) =    -48.87141  eV     1   --> A              
     e(  9 -  9) =     -5.52388  eV     1   --> A              
     e( 10 - 10) =     -4.05277  eV     1   --> A              
     e( 11 - 11) =      2.75399  eV     1   --> A              
     e( 12 - 12) =      5.92566  eV     1   --> A              
     e( 13 - 13) =      5.93321  eV     1   --> A              
     e( 14 - 14) =      8.57210  eV     1   --> A              
     e( 15 - 15) =      8.57915  eV     1   --> A              
     e( 16 - 16) =      8.71462  eV     1   --> A              
     e( 17 - 17) =      9.48513  eV     1   --> A              
     e( 18 - 18) =      9.57205  eV     1   --> A              
     e( 19 - 19) =      9.73829  eV     1   --> A              
     e( 20 - 20) =      9.76656  eV     1   --> A              
     e( 21 - 21) =      9.82161  eV     1   --> A              
     e( 22 - 22) =     10.66365  eV     1   --> A              
     e( 23 - 23) =     11.17612  eV     1   --> A              
     e( 24 - 24) =     11.18549  eV     1   --> A              
     e( 25 - 25) =     16.21556  eV     1   --> A              
     e( 26 - 26) =     16.54348  eV     1   --> A              
     e( 27 - 27) =     16.55216  eV     1   --> A              
     e( 28 - 28) =     20.14242  eV     1   --> A              
     e( 29 - 29) =     24.66073  eV     1   --> A              
     e( 30 - 30) =     28.48077  eV     1   --> A              
     e( 31 - 31) =     28.55975  eV     1   --> A              
     e( 32 - 32) =     31.98092  eV     1   --> A              
     e( 33 - 33) =     33.31825  eV     1   --> A              
     e( 34 - 34) =     33.38293  eV     1   --> A              
     e( 35 - 35) =     33.56764  eV     1   --> A              
     e( 36 - 36) =     35.84011  eV     1   --> A              
     e( 37 - 37) =     36.71555  eV     1   --> A              
     e( 38 - 38) =     36.87085  eV     1   --> A              
     e( 39 - 39) =     36.96217  eV     1   --> A              
     e( 40 - 40) =     39.97730  eV     1   --> A              
     e( 41 - 41) =     40.19116  eV     1   --> A              
     e( 42 - 42) =     40.63272  eV     1   --> A              
     e( 43 - 43) =     40.72043  eV     1   --> A              
     e( 44 - 44) =     41.48750  eV     1   --> A              
     e( 45 - 45) =     43.47485  eV     1   --> A              
     e( 46 - 46) =     43.50642  eV     1   --> A              
     e( 47 - 47) =     50.54448  eV     1   --> A              
     e( 48 - 48) =     50.79005  eV     1   --> A              
     e( 49 - 49) =     50.80176  eV     1   --> A              
     e( 50 - 50) =     51.36320  eV     1   --> A              
     e( 51 - 51) =     54.77054  eV     1   --> A              
     e( 52 - 52) =     54.82694  eV     1   --> A              
     e( 53 - 53) =     56.63882  eV     1   --> A              
     e( 54 - 54) =     57.03222  eV     1   --> A              
     e( 55 - 55) =     58.95729  eV     1   --> A              
     e( 56 - 56) =     58.99017  eV     1   --> A              
     e( 57 - 57) =     65.41324  eV     1   --> A              
     e( 58 - 58) =     65.68559  eV     1   --> A              
     e( 59 - 59) =     67.53517  eV     1   --> A              
     e( 60 - 60) =     67.84174  eV     1   --> A              
     e( 61 - 61) =     67.87758  eV     1   --> A              
     e( 62 - 62) =     67.97937  eV     1   --> A              
     e( 63 - 63) =     70.94827  eV     1   --> A              
     e( 64 - 64) =     70.97532  eV     1   --> A              
     e( 65 - 65) =     71.04375  eV     1   --> A              
     e( 66 - 66) =     71.21510  eV     1   --> A              
     e( 67 - 67) =     71.49297  eV     1   --> A              
     e( 68 - 68) =     72.39930  eV     1   --> A              
     e( 69 - 69) =     72.41791  eV     1   --> A              
     e( 70 - 70) =     72.73964  eV     1   --> A              
     e( 71 - 71) =     73.18922  eV     1   --> A              
     e( 72 - 72) =     73.64385  eV     1   --> A              
     e( 73 - 73) =     74.21189  eV     1   --> A              
     e( 74 - 74) =     77.56432  eV     1   --> A              
     e( 75 - 75) =     79.92838  eV     1   --> A              
     e( 76 - 76) =     80.04165  eV     1   --> A              
     e( 77 - 77) =     80.82690  eV     1   --> A              
     e( 78 - 78) =     82.99421  eV     1   --> A              
     e( 79 - 79) =     83.13625  eV     1   --> A              
     e( 80 - 80) =     87.87064  eV     1   --> A              
     e( 81 - 81) =     87.89233  eV     1   --> A              
     e( 82 - 82) =     87.93970  eV     1   --> A              
     e( 83 - 83) =     88.49423  eV     1   --> A              
     e( 84 - 84) =     89.72519  eV     1   --> A              
     e( 85 - 85) =     90.45562  eV     1   --> A              
     e( 86 - 86) =     90.62189  eV     1   --> A              
     e( 87 - 87) =     90.79554  eV     1   --> A              
     e( 88 - 88) =     90.85039  eV     1   --> A              
     e( 89 - 89) =     92.24770  eV     1   --> A              
     e( 90 - 90) =     92.67512  eV     1   --> A              
     e( 91 - 91) =     92.86154  eV     1   --> A              
     e( 92 - 92) =     93.00287  eV     1   --> A              
     e( 93 - 93) =     93.05916  eV     1   --> A              
     e( 94 - 94) =     93.75469  eV     1   --> A              
     e( 95 - 95) =     93.83746  eV     1   --> A              
     e( 96 - 96) =     93.85576  eV     1   --> A              
     e( 97 - 97) =     94.31461  eV     1   --> A              
     e( 98 - 98) =     95.00764  eV     1   --> A              
     e( 99 - 99) =     95.14570  eV     1   --> A              
     e(100 -100) =     95.45175  eV     1   --> A              

 **************************************************************************

 **************************************************************************

                    xk=(   0.00391,  -0.01296,  -0.02116  )

     Band symmetry, C_1 (1)     point group:

     e(  1 -  1) =    -90.64488  eV     1   --> A              
     e(  2 -  2) =    -88.50469  eV     1   --> A              
     e(  3 -  3) =    -50.97533  eV     1   --> A              
     e(  4 -  4) =    -50.96063  eV     1   --> A              
     e(  5 -  5) =    -50.95986  eV     1   --> A              
     e(  6 -  6) =    -48.88673  eV     1   --> A              
     e(  7 -  7) =    -48.87153  eV     1   --> A              
     e(  8 -  8) =    -48.87134  eV     1   --> A              
     e(  9 -  9) =     -5.52663  eV     1   --> A              
     e( 10 - 10) =     -4.05221  eV     1   --> A              
     e( 11 - 11) =      2.74149  eV     1   --> A              
     e( 12 - 12) =      5.92954  eV     1   --> A              
     e( 13 - 13) =      5.93134  eV     1   --> A              
     e( 14 - 14) =      8.58816  eV     1   --> A              
     e( 15 - 15) =      8.59045  eV     1   --> A              
     e( 16 - 16) =      8.71775  eV     1   --> A              
     e( 17 - 17) =      9.54405  eV     1   --> A              
     e( 18 - 18) =      9.57133  eV     1   --> A              
     e( 19 - 19) =      9.75299  eV     1   --> A              
     e( 20 - 20) =      9.76028  eV     1   --> A              
     e( 21 - 21) =      9.77590  eV     1   --> A              
     e( 22 - 22) =     10.66516  eV     1   --> A              
     e( 23 - 23) =     11.17586  eV     1   --> A              
     e( 24 - 24) =     11.18009  eV     1   --> A              
     e( 25 - 25) =     16.18473  eV     1   --> A              
     e( 26 - 26) =     16.55097  eV     1   --> A              
     e( 27 - 27) =     16.55374  eV     1   --> A              
     e( 28 - 28) =     20.11129  eV     1   --> A              
     e( 29 - 29) =     24.66849  eV     1   --> A              
     e( 30 - 30) =     28.52698  eV     1   --> A              
     e( 31 - 31) =     28.54700  eV     1   --> A              
     e( 32 - 32) =     32.14519  eV     1   --> A              
     e( 33 - 33) =     33.36335  eV     1   --> A              
     e( 34 - 34) =     33.37958  eV     1   --> A              
     e( 35 - 35) =     33.43259  eV     1   --> A              
     e( 36 - 36) =     35.77193  eV     1   --> A              
     e( 37 - 37) =     36.82749  eV     1   --> A              
     e( 38 - 38) =     36.87072  eV     1   --> A              
     e( 39 - 39) =     36.89275  eV     1   --> A              
     e( 40 - 40) =     40.14654  eV     1   --> A              
     e( 41 - 41) =     40.20488  eV     1   --> A              
     e( 42 - 42) =     40.59597  eV     1   --> A              
     e( 43 - 43) =     40.61381  eV     1   --> A              
     e( 44 - 44) =     41.32598  eV     1   --> A              
     e( 45 - 45) =     43.44798  eV     1   --> A              
     e( 46 - 46) =     43.45588  eV     1   --> A              
     e( 47 - 47) =     50.70658  eV     1   --> A              
     e( 48 - 48) =     50.79654  eV     1   --> A              
     e( 49 - 49) =     50.80085  eV     1   --> A              
     e( 50 - 50) =     51.18551  eV     1   --> A              
     e( 51 - 51) =     54.81108  eV     1   --> A              
     e( 52 - 52) =     54.82557  eV     1   --> A              
     e( 53 - 53) =     56.69587  eV     1   --> A              
     e( 54 - 54) =     56.93993  eV     1   --> A              
     e( 55 - 55) =     58.96693  eV     1   --> A              
     e( 56 - 56) =     58.97510  eV     1   --> A              
     e( 57 - 57) =     65.61084  eV     1   --> A              
     e( 58 - 58) =     65.68531  eV     1   --> A              
     e( 59 - 59) =     67.70373  eV     1   --> A              
     e( 60 - 60) =     67.92187  eV     1   --> A              
     e( 61 - 61) =     68.01388  eV     1   --> A              
     e( 62 - 62) =     68.05147  eV     1   --> A              
     e( 63 - 63) =     70.93342  eV     1   --> A              
     e( 64 - 64) =     70.94888  eV     1   --> A              
     e( 65 - 65) =     70.97323  eV     1   --> A              
     e( 66 - 66) =     71.03166  eV     1   --> A              
     e( 67 - 67) =     71.09178  eV     1   --> A              
     e( 68 - 68) =     72.40992  eV     1   --> A              
     e( 69 - 69) =     72.52417  eV     1   --> A              
     e( 70 - 70) =     72.70250  eV     1   --> A              
     e( 71 - 71) =     73.47499  eV     1   --> A              
     e( 72 - 72) =     73.60019  eV     1   --> A              
     e( 73 - 73) =     74.20645  eV     1   --> A              
     e( 74 - 74) =     77.21746  eV     1   --> A              
     e( 75 - 75) =     80.17012  eV     1   --> A              
     e( 76 - 76) =     80.21243  eV     1   --> A              
     e( 77 - 77) =     80.89078  eV     1   --> A              
     e( 78 - 78) =     82.74837  eV     1   --> A              
     e( 79 - 79) =     82.79348  eV     1   --> A              
     e( 80 - 80) =     87.95408  eV     1   --> A              
     e( 81 - 81) =     87.95960  eV     1   --> A              
     e( 82 - 82) =     87.97120  eV     1   --> A              
     e( 83 - 83) =     89.02696  eV     1   --> A              
     e( 84 - 84) =     89.87978  eV     1   --> A              
     e( 85 - 85) =     90.18152  eV     1   --> A              
     e( 86 - 86) =     90.88554  eV     1   --> A              
     e( 87 - 87) =     90.93584  eV     1   --> A              
     e( 88 - 88) =     90.95881  eV     1   --> A              
     e( 89 - 89) =     92.59962  eV     1   --> A              
     e( 90 - 90) =     93.16049  eV     1   --> A              
     e( 91 - 91) =     93.17537  eV     1   --> A              
     e( 92 - 92) =     93.18720  eV     1   --> A              
     e( 93 - 93) =     93.23325  eV     1   --> A              
     e( 94 - 94) =     93.65175  eV     1   --> A              
     e( 95 - 95) =     93.70275  eV     1   --> A              
     e( 96 - 96) =     93.73438  eV     1   --> A              
     e( 97 - 97) =     93.85931  eV     1   --> A              
     e( 98 - 98) =     94.98841  eV     1   --> A              
     e( 99 - 99) =     95.05130  eV     1   --> A              
     e(100 -100) =     95.11177  eV     1   --> A              

 **************************************************************************

 **************************************************************************

                    xk=(   0.00000,   0.00000,   0.00000  )

     point group C_i (-1)   
     there are  2 classes
     the character table:

       E     i    
A_g    1.00  1.00
A_u    1.00 -1.00

     the symmetry operations in each class and the name of the first element:

     E        1
                                                                 
     i        2
                                                                 

     Band symmetry, C_i (-1)    point group:

     e(  1 -  1) =    -90.64488  eV     1   --> A_g            
     e(  2 -  2) =    -88.50467  eV     1   --> A_g            
     e(  3 -  3) =    -50.97531  eV     1   --> A_u            
     e(  4 -  4) =    -50.96058  eV     1   --> A_u            
     e(  5 -  5) =    -50.95983  eV     1   --> A_u            
     e(  6 -  6) =    -48.88671  eV     1   --> A_u            
     e(  7 -  7) =    -48.87147  eV     1   --> A_u            
     e(  8 -  8) =    -48.87131  eV     1   --> A_u            
     e(  9 -  9) =     -5.52754  eV     1   --> A_g            
     e( 10 - 10) =     -4.05202  eV     1   --> A_u            
     e( 11 - 11) =      2.73732  eV     1   --> A_g            
     e( 12 - 12) =      5.93058  eV     1   --> A_g            
     e( 13 - 13) =      5.93096  eV     1   --> A_g            
     e( 14 - 14) =      8.59319  eV     1   --> A_g            
     e( 15 - 15) =      8.59432  eV     1   --> A_g            
     e( 16 - 16) =      8.71898  eV     1   --> A_g            
     e( 17 - 17) =      9.56907  eV     1   --> A_g            
     e( 18 - 18) =      9.57193  eV     1   --> A_g            
     e( 19 - 19) =      9.75446  eV     1   --> A_u            
     e( 20 - 21) =      9.75811  eV     2   -->   2 A_u            
     e( 22 - 22) =     10.66565  eV     1   --> A_g            
     e( 23 - 23) =     11.17573  eV     1   --> A_g            
     e( 24 - 24) =     11.17825  eV     1   --> A_g            
     e( 25 - 25) =     16.17435  eV     1   --> A_g            
     e( 26 - 26) =     16.55342  eV     1   --> A_g            
     e( 27 - 27) =     16.55442  eV     1   --> A_g            
     e( 28 - 28) =     20.10084  eV     1   --> A_u            
     e( 29 - 29) =     24.67108  eV     1   --> A_g            
     e( 30 - 30) =     28.54259  eV     1   --> A_u            
     e( 31 - 31) =     28.54277  eV     1   --> A_u            
     e( 32 - 32) =     32.20914  eV     1   --> A_u            
     e( 33 - 34) =     33.37837  eV     2   -->   2 A_g            
     e( 35 - 35) =     33.37855  eV     1   --> A_g            
     e( 36 - 36) =     35.74887  eV     1   --> A_g            
     e( 37 - 37) =     36.86394  eV     1   --> A_u            
     e( 38 - 38) =     36.87145  eV     1   --> A_u            
     e( 39 - 39) =     36.87162  eV     1   --> A_u            
     e( 40 - 40) =     40.20863  eV     1   --> A_g            
     e( 41 - 41) =     40.20899  eV     1   --> A_g            
     e( 42 - 42) =     40.58464  eV     1   --> A_g            
     e( 43 - 43) =     40.58507  eV     1   --> A_g            
     e( 44 - 44) =     41.25741  eV     1   --> A_u            
     e( 45 - 46) =     43.43892  eV     2   -->   2 A_u            
     e( 47 - 48) =     50.79826  eV     2   -->   2 A_u            
     e( 49 - 49) =     50.80104  eV     1   --> A_u            
     e( 50 - 50) =     51.08855  eV     1   --> A_g            
     e( 51 - 51) =     54.82485  eV     1   --> A_g            
     e( 52 - 52) =     54.82512  eV     1   --> A_g            
     e( 53 - 53) =     56.72909  eV     1   --> A_u            
     e( 54 - 54) =     56.89472  eV     1   --> A_g            
     e( 55 - 56) =     58.97005  eV     2   -->   2 A_u            
     e( 57 - 58) =     65.68524  eV     2   -->   2 A_g            
     e( 59 - 59) =     67.63725  eV     1   --> A_u            
     e( 60 - 60) =     68.07482  eV     1   --> A_u            
     e( 61 - 62) =     68.07676  eV     2   -->   2 A_u            
     e( 63 - 64) =     70.90045  eV     2   -->   2 A_g            
     e( 65 - 65) =     70.96961  eV     1   --> A_g            
     e( 66 - 67) =     70.97256  eV     2   -->   2 A_g            
     e( 68 - 68) =     72.40883  eV     1   --> A_g            
     e( 69 - 69) =     72.56448  eV     1   --> A_u            
     e( 70 - 70) =     72.68871  eV     1   --> A_u            
     e( 71 - 72) =     73.58552  eV     2   -->   2 A_u            
     e( 73 - 73) =     74.20461  eV     1   --> A_g            
     e( 74 - 74) =     77.08815  eV     1   --> A_g            
     e( 75 - 76) =     80.26145  eV     2   -->   2 A_g            
     e( 77 - 77) =     80.94369  eV     1   --> A_g            
     e( 78 - 79) =     82.65534  eV     2   -->   2 A_u            
     e( 80 - 80) =     87.98101  eV     1   --> A_u            
     e( 81 - 82) =     87.98167  eV     2   -->   2 A_u            
     e( 83 - 83) =     89.34406  eV     1   --> A_u            
     e( 84 - 85) =     89.92843  eV     2   -->   2 A_g            
     e( 86 - 87) =     90.97584  eV     2   -->   2 A_u            
     e( 88 - 88) =     91.03242  eV     1   --> A_u            
     e( 89 - 89) =     92.82090  eV     1   --> A_g            
     e( 90 - 90) =     93.21487  eV     1   --> A_u            
     e( 91 - 91) =     93.36869  eV     1   --> A_u            
     e( 92 - 92) =     93.36881  eV     1   --> A_u            
     e( 93 - 93) =     93.37773  eV     1   --> A_u            
     e( 94 - 94) =     93.61038  eV     1   --> A_u            
     e( 95 - 95) =     93.61049  eV     1   --> A_u            
     e( 96 - 97) =     93.63519  eV     2   -->   2 A_g            
     e( 98 - 99) =     94.97379  eV     2   -->   2 A_g            
     e(100 -100) =     94.97430  eV     1   --> A_g            

 **************************************************************************
 
     BANDS        :    40.97s CPU        51.30s WALL

 
   This run was terminated on:  19: 3:47   3Jan2020            

=------------------------------------------------------------------------------=
   JOB DONE.
=------------------------------------------------------------------------------=
IPL WARN> ipl_option_omp: wrong omp option 
