
     Program BANDS v.6.1 (svn rev. 13369) starts on  3Jan2020 at 19:54: 4 

     This program is part of the open-source Quantum ESPRESSO suite
     for quantum simulation of materials; please cite
         "P. Giannozzi et al., J. Phys.:Condens. Matter 21 395502 (2009);
          URL http://www.quantum-espresso.org", 
     in publications or presentations arising from this work. More details at
     http://www.quantum-espresso.org/quote

     Parallel version (MPI), running on    40 processors
     R & G space division:  proc/nbgrp/npool/nimage =      40

     Reading data from directory:
     ./outdir/NiO.save

   Info: using nr1, nr2, nr3 values from input

   Info: using nr1, nr2, nr3 values from input

     IMPORTANT: XC functional enforced from input :
     Exchange-correlation      =  SLA  PW   PBX  PBC ( 1  4  3  4 0 0)
     Any further DFT definition will be discarded
     Please, verify this is what you really want

               file Ni.pbe-spn-kjpaw_psl.1.0.0.UPF: wavefunction(s)  3P 3D renormalized
               file Ni.pbe-spn-kjpaw_psl.1.0.0.UPF: wavefunction(s)  3P 3D renormalized
               file O.pbe-n-kjpaw_psl.1.0.0.UPF: wavefunction(s)  2S 2P renormalized
 
     Parallelization info
     --------------------
     sticks:   dense  smooth     PW     G-vecs:    dense   smooth      PW
     Min          82      82     22                 2333     2333     341
     Max          83      83     23                 2335     2335     344
     Sum        3287    3287    911                93351    93351   13705
 
     Generating pointlists ...
     new r_m :   0.1684 (alat units)  1.6253 (a.u.) for type    1
     new r_m :   0.1684 (alat units)  1.6253 (a.u.) for type    2
     new r_m :   0.1684 (alat units)  1.6253 (a.u.) for type    3
     high-symmetry point:  0.0000 0.0000 0.0000   x coordinate   0.0000
     high-symmetry point:  0.0000-0.9045-0.5539   x coordinate   1.0607
     high-symmetry point: -0.1875-0.6219-1.0155   x coordinate   1.6335
     high-symmetry point: -0.3438-0.1036-1.0155   x coordinate   2.1747
     high-symmetry point:  0.0000 0.0000 0.0000   x coordinate   3.2519
     high-symmetry point: -0.5000-0.1508-0.0923   x coordinate   3.7822
     high-symmetry point: -0.1875-0.9045-0.5539   x coordinate   4.7197
     high-symmetry point: -0.1875-0.6219-1.0155   x coordinate   5.2609
     high-symmetry point: -0.5000-0.1508-0.0923   x coordinate   6.3435
     high-symmetry point: -0.3438-0.1036-1.0155   x coordinate   7.2810
     high-symmetry point: -0.1875-0.9045-0.5539   x coordinate   8.2185
     high-symmetry point:  0.0000-0.9045-0.5539   x coordinate   8.4060
     high-symmetry point:  0.0000 0.0000 0.0000   x coordinate   9.4666
     high-symmetry point:  0.0000 0.0000-1.0155   x coordinate  10.4821
     high-symmetry point:  0.0000-0.6219-1.0155   x coordinate  11.1040
     high-symmetry point:  0.1875-0.6219-1.0155   x coordinate  11.2915
     high-symmetry point:  0.0000 0.0000 0.0000   x coordinate  12.4970

     Plottable bands (eV) written to file NiO.bands.dat.gnu
     Bands written to file NiO.bands.dat

 **************************************************************************

                    xk=(   0.00000,   0.00000,   0.00000  )

     point group C_i (-1)   
     there are  2 classes
     the character table:

       E     i    
A_g    1.00  1.00
A_u    1.00 -1.00

     the symmetry operations in each class and the name of the first element:

     E        1
                                                                 
     i        2
                                                                 

     Band symmetry, C_i (-1)    point group:

     e(  1 -  1) =    -90.71291  eV     1   --> A_g            
     e(  2 -  2) =    -88.55167  eV     1   --> A_g            
     e(  3 -  3) =    -51.03715  eV     1   --> A_u            
     e(  4 -  4) =    -51.02255  eV     1   --> A_u            
     e(  5 -  5) =    -51.02169  eV     1   --> A_u            
     e(  6 -  6) =    -48.92816  eV     1   --> A_u            
     e(  7 -  7) =    -48.91288  eV     1   --> A_u            
     e(  8 -  8) =    -48.91272  eV     1   --> A_u            
     e(  9 -  9) =     -5.49809  eV     1   --> A_g            
     e( 10 - 10) =     -4.01724  eV     1   --> A_u            
     e( 11 - 11) =      2.42841  eV     1   --> A_g            
     e( 12 - 12) =      5.65530  eV     1   --> A_g            
     e( 13 - 13) =      5.65573  eV     1   --> A_g            
     e( 14 - 14) =      8.29692  eV     1   --> A_g            
     e( 15 - 15) =      8.29818  eV     1   --> A_g            
     e( 16 - 16) =      8.42631  eV     1   --> A_g            
     e( 17 - 17) =      9.29599  eV     1   --> A_g            
     e( 18 - 18) =      9.29910  eV     1   --> A_g            
     e( 19 - 19) =      9.59876  eV     1   --> A_u            
     e( 20 - 21) =      9.60296  eV     2   -->   2 A_u            
     e( 22 - 22) =     10.41746  eV     1   --> A_g            
     e( 23 - 23) =     11.01931  eV     1   --> A_g            
     e( 24 - 24) =     11.02208  eV     1   --> A_g            
     e( 25 - 25) =     16.18210  eV     1   --> A_g            
     e( 26 - 26) =     16.66612  eV     1   --> A_g            
     e( 27 - 27) =     16.66716  eV     1   --> A_g            
     e( 28 - 28) =     20.10352  eV     1   --> A_u            
     e( 29 - 29) =     24.67557  eV     1   --> A_g            
     e( 30 - 30) =     28.53722  eV     1   --> A_u            
     e( 31 - 31) =     28.53742  eV     1   --> A_u            
     e( 32 - 32) =     32.20916  eV     1   --> A_u            
     e( 33 - 34) =     33.37073  eV     2   -->   2 A_g            
     e( 35 - 35) =     33.37096  eV     1   --> A_g            
     e( 36 - 36) =     35.73838  eV     1   --> A_g            
     e( 37 - 37) =     36.85270  eV     1   --> A_u            
     e( 38 - 38) =     36.86042  eV     1   --> A_u            
     e( 39 - 39) =     36.86061  eV     1   --> A_u            
     e( 40 - 40) =     40.20429  eV     1   --> A_g            
     e( 41 - 41) =     40.20471  eV     1   --> A_g            
     e( 42 - 42) =     40.58183  eV     1   --> A_g            
     e( 43 - 43) =     40.58231  eV     1   --> A_g            
     e( 44 - 44) =     41.26201  eV     1   --> A_u            
     e( 45 - 46) =     43.44208  eV     2   -->   2 A_u            
     e( 47 - 48) =     50.81181  eV     2   -->   2 A_u            
     e( 49 - 49) =     50.81443  eV     1   --> A_u            
     e( 50 - 50) =     51.07705  eV     1   --> A_g            
     e( 51 - 51) =     54.82208  eV     1   --> A_g            
     e( 52 - 52) =     54.82238  eV     1   --> A_g            
     e( 53 - 53) =     56.73277  eV     1   --> A_u            
     e( 54 - 54) =     56.89523  eV     1   --> A_g            
     e( 55 - 55) =     58.96701  eV     1   --> A_u            
     e( 56 - 56) =     58.96712  eV     1   --> A_u            
     e( 57 - 58) =     65.68822  eV     2   -->   2 A_g            
     e( 59 - 59) =     67.62676  eV     1   --> A_u            
     e( 60 - 60) =     68.06997  eV     1   --> A_u            
     e( 61 - 62) =     68.07210  eV     2   -->   2 A_u            
     e( 63 - 64) =     70.90425  eV     2   -->   2 A_g            
     e( 65 - 65) =     70.97231  eV     1   --> A_g            
     e( 66 - 67) =     70.97552  eV     2   -->   2 A_g            
     e( 68 - 68) =     72.39526  eV     1   --> A_g            
     e( 69 - 69) =     72.55407  eV     1   --> A_u            
     e( 70 - 70) =     72.69741  eV     1   --> A_u            
     e( 71 - 72) =     73.59432  eV     2   -->   2 A_u            
     e( 73 - 73) =     74.21493  eV     1   --> A_g            
     e( 74 - 74) =     77.09367  eV     1   --> A_g            
     e( 75 - 76) =     80.25355  eV     2   -->   2 A_g            
     e( 77 - 77) =     80.95502  eV     1   --> A_g            
     e( 78 - 79) =     82.65396  eV     2   -->   2 A_u            
     e( 80 - 80) =     87.97969  eV     1   --> A_u            
     e( 81 - 82) =     87.98032  eV     2   -->   2 A_u            
     e( 83 - 83) =     89.33489  eV     1   --> A_u            
     e( 84 - 84) =     89.92656  eV     1   --> A_g            
     e( 85 - 85) =     89.92666  eV     1   --> A_g            
     e( 86 - 87) =     90.97396  eV     2   -->   2 A_u            
     e( 88 - 88) =     91.03231  eV     1   --> A_u            
     e( 89 - 89) =     92.82612  eV     1   --> A_g            
     e( 90 - 90) =     93.19966  eV     1   --> A_u            
     e( 91 - 91) =     93.36835  eV     1   --> A_u            
     e( 92 - 92) =     93.36848  eV     1   --> A_u            
     e( 93 - 93) =     93.37748  eV     1   --> A_u            
     e( 94 - 94) =     93.61369  eV     1   --> A_u            
     e( 95 - 95) =     93.61381  eV     1   --> A_u            
     e( 96 - 97) =     93.63523  eV     2   -->   2 A_g            
     e( 98 - 99) =     94.97803  eV     2   -->   2 A_g            
     e(100 -100) =     94.97849  eV     1   --> A_g            

 **************************************************************************

 **************************************************************************

                    xk=(   0.00000,  -0.02154,  -0.01319  )

     point group C_1 (1)    
     there are  1 classes
     the character table:

       E    
A      1.00

     the symmetry operations in each class and the name of the first element:

     E        1
                                                                 

     Band symmetry, C_1 (1)     point group:

     e(  1 -  1) =    -90.71292  eV     1   --> A              
     e(  2 -  2) =    -88.55170  eV     1   --> A              
     e(  3 -  3) =    -51.03717  eV     1   --> A              
     e(  4 -  4) =    -51.02258  eV     1   --> A              
     e(  5 -  5) =    -51.02173  eV     1   --> A              
     e(  6 -  6) =    -48.92818  eV     1   --> A              
     e(  7 -  7) =    -48.91292  eV     1   --> A              
     e(  8 -  8) =    -48.91276  eV     1   --> A              
     e(  9 -  9) =     -5.49725  eV     1   --> A              
     e( 10 - 10) =     -4.01785  eV     1   --> A              
     e( 11 - 11) =      2.43316  eV     1   --> A              
     e( 12 - 12) =      5.65432  eV     1   --> A              
     e( 13 - 13) =      5.65630  eV     1   --> A              
     e( 14 - 14) =      8.29259  eV     1   --> A              
     e( 15 - 15) =      8.29515  eV     1   --> A              
     e( 16 - 16) =      8.42467  eV     1   --> A              
     e( 17 - 17) =      9.28158  eV     1   --> A              
     e( 18 - 18) =      9.29539  eV     1   --> A              
     e( 19 - 19) =      9.59955  eV     1   --> A              
     e( 20 - 20) =      9.60452  eV     1   --> A              
     e( 21 - 21) =      9.61054  eV     1   --> A              
     e( 22 - 22) =     10.41691  eV     1   --> A              
     e( 23 - 23) =     11.01935  eV     1   --> A              
     e( 24 - 24) =     11.02369  eV     1   --> A              
     e( 25 - 25) =     16.19255  eV     1   --> A              
     e( 26 - 26) =     16.66474  eV     1   --> A              
     e( 27 - 27) =     16.66569  eV     1   --> A              
     e( 28 - 28) =     20.11306  eV     1   --> A              
     e( 29 - 29) =     24.67337  eV     1   --> A              
     e( 30 - 30) =     28.52342  eV     1   --> A              
     e( 31 - 31) =     28.54185  eV     1   --> A              
     e( 32 - 32) =     32.14378  eV     1   --> A              
     e( 33 - 33) =     33.36680  eV     1   --> A              
     e( 34 - 34) =     33.36694  eV     1   --> A              
     e( 35 - 35) =     33.42003  eV     1   --> A              
     e( 36 - 36) =     35.75913  eV     1   --> A              
     e( 37 - 37) =     36.83516  eV     1   --> A              
     e( 38 - 38) =     36.84210  eV     1   --> A              
     e( 39 - 39) =     36.88024  eV     1   --> A              
     e( 40 - 40) =     40.13690  eV     1   --> A              
     e( 41 - 41) =     40.20968  eV     1   --> A              
     e( 42 - 42) =     40.59730  eV     1   --> A              
     e( 43 - 43) =     40.60728  eV     1   --> A              
     e( 44 - 44) =     41.32512  eV     1   --> A              
     e( 45 - 45) =     43.44823  eV     1   --> A              
     e( 46 - 46) =     43.46458  eV     1   --> A              
     e( 47 - 47) =     50.71419  eV     1   --> A              
     e( 48 - 48) =     50.81139  eV     1   --> A              
     e( 49 - 49) =     50.81368  eV     1   --> A              
     e( 50 - 50) =     51.17922  eV     1   --> A              
     e( 51 - 51) =     54.81418  eV     1   --> A              
     e( 52 - 52) =     54.81601  eV     1   --> A              
     e( 53 - 53) =     56.59163  eV     1   --> A              
     e( 54 - 54) =     57.04767  eV     1   --> A              
     e( 55 - 55) =     58.95665  eV     1   --> A              
     e( 56 - 56) =     58.97453  eV     1   --> A              
     e( 57 - 57) =     65.61573  eV     1   --> A              
     e( 58 - 58) =     65.70071  eV     1   --> A              
     e( 59 - 59) =     67.68121  eV     1   --> A              
     e( 60 - 60) =     67.94728  eV     1   --> A              
     e( 61 - 61) =     67.94916  eV     1   --> A              
     e( 62 - 62) =     68.07531  eV     1   --> A              
     e( 63 - 63) =     70.93651  eV     1   --> A              
     e( 64 - 64) =     70.93806  eV     1   --> A              
     e( 65 - 65) =     70.97549  eV     1   --> A              
     e( 66 - 66) =     71.07271  eV     1   --> A              
     e( 67 - 67) =     71.07399  eV     1   --> A              
     e( 68 - 68) =     72.40225  eV     1   --> A              
     e( 69 - 69) =     72.51520  eV     1   --> A              
     e( 70 - 70) =     72.71166  eV     1   --> A              
     e( 71 - 71) =     73.49337  eV     1   --> A              
     e( 72 - 72) =     73.60628  eV     1   --> A              
     e( 73 - 73) =     74.21680  eV     1   --> A              
     e( 74 - 74) =     77.21485  eV     1   --> A              
     e( 75 - 75) =     80.16893  eV     1   --> A              
     e( 76 - 76) =     80.21275  eV     1   --> A              
     e( 77 - 77) =     80.90417  eV     1   --> A              
     e( 78 - 78) =     82.74314  eV     1   --> A              
     e( 79 - 79) =     82.77902  eV     1   --> A              
     e( 80 - 80) =     87.95882  eV     1   --> A              
     e( 81 - 81) =     87.96036  eV     1   --> A              
     e( 82 - 82) =     87.96097  eV     1   --> A              
     e( 83 - 83) =     89.03800  eV     1   --> A              
     e( 84 - 84) =     89.88926  eV     1   --> A              
     e( 85 - 85) =     90.15632  eV     1   --> A              
     e( 86 - 86) =     90.88897  eV     1   --> A              
     e( 87 - 87) =     90.92574  eV     1   --> A              
     e( 88 - 88) =     90.96018  eV     1   --> A              
     e( 89 - 89) =     92.61991  eV     1   --> A              
     e( 90 - 90) =     93.15996  eV     1   --> A              
     e( 91 - 91) =     93.17975  eV     1   --> A              
     e( 92 - 92) =     93.18071  eV     1   --> A              
     e( 93 - 93) =     93.21463  eV     1   --> A              
     e( 94 - 94) =     93.64199  eV     1   --> A              
     e( 95 - 95) =     93.71067  eV     1   --> A              
     e( 96 - 96) =     93.71992  eV     1   --> A              
     e( 97 - 97) =     93.84862  eV     1   --> A              
     e( 98 - 98) =     95.01194  eV     1   --> A              
     e( 99 - 99) =     95.08764  eV     1   --> A              
     e(100 -100) =     95.08790  eV     1   --> A              

 **************************************************************************

 **************************************************************************

                    xk=(   0.00000,  -0.04307,  -0.02638  )

     Band symmetry, C_1 (1)     point group:

     e(  1 -  1) =    -90.71294  eV     1   --> A              
     e(  2 -  2) =    -88.55178  eV     1   --> A              
     e(  3 -  3) =    -51.03721  eV     1   --> A              
     e(  4 -  4) =    -51.02266  eV     1   --> A              
     e(  5 -  5) =    -51.02186  eV     1   --> A              
     e(  6 -  6) =    -48.92823  eV     1   --> A              
     e(  7 -  7) =    -48.91306  eV     1   --> A              
     e(  8 -  8) =    -48.91286  eV     1   --> A              
     e(  9 -  9) =     -5.49470  eV     1   --> A              
     e( 10 - 10) =     -4.01967  eV     1   --> A              
     e( 11 - 11) =      2.44738  eV     1   --> A              
     e( 12 - 12) =      5.65113  eV     1   --> A              
     e( 13 - 13) =      5.65827  eV     1   --> A              
     e( 14 - 14) =      8.27644  eV     1   --> A              
     e( 15 - 15) =      8.28854  eV     1   --> A              
     e( 16 - 16) =      8.42023  eV     1   --> A              
     e( 17 - 17) =      9.23755  eV     1   --> A              
     e( 18 - 18) =      9.29118  eV     1   --> A              
     e( 19 - 19) =      9.59017  eV     1   --> A              
     e( 20 - 20) =      9.60891  eV     1   --> A              
     e( 21 - 21) =      9.63959  eV     1   --> A              
     e( 22 - 22) =     10.41526  eV     1   --> A              
     e( 23 - 23) =     11.01884  eV     1   --> A              
     e( 24 - 24) =     11.02908  eV     1   --> A              
     e( 25 - 25) =     16.22365  eV     1   --> A              
     e( 26 - 26) =     16.65968  eV     1   --> A              
     e( 27 - 27) =     16.66241  eV     1   --> A              
     e( 28 - 28) =     20.14146  eV     1   --> A              
     e( 29 - 29) =     24.66679  eV     1   --> A              
     e( 30 - 30) =     28.48221  eV     1   --> A              
     e( 31 - 31) =     28.55555  eV     1   --> A              
     e( 32 - 32) =     31.97450  eV     1   --> A              
     e( 33 - 33) =     33.35477  eV     1   --> A              
     e( 34 - 34) =     33.35493  eV     1   --> A              
     e( 35 - 35) =     33.54058  eV     1   --> A              
     e( 36 - 36) =     35.82037  eV     1   --> A              
     e( 37 - 37) =     36.78294  eV     1   --> A              
     e( 38 - 38) =     36.78944  eV     1   --> A              
     e( 39 - 39) =     36.94138  eV     1   --> A              
     e( 40 - 40) =     39.95433  eV     1   --> A              
     e( 41 - 41) =     40.22178  eV     1   --> A              
     e( 42 - 42) =     40.66672  eV     1   --> A              
     e( 43 - 43) =     40.68420  eV     1   --> A              
     e( 44 - 44) =     41.46899  eV     1   --> A              
     e( 45 - 45) =     43.46650  eV     1   --> A              
     e( 46 - 46) =     43.53156  eV     1   --> A              
     e( 47 - 47) =     50.54695  eV     1   --> A              
     e( 48 - 48) =     50.80997  eV     1   --> A              
     e( 49 - 49) =     50.81226  eV     1   --> A              
     e( 50 - 50) =     51.35928  eV     1   --> A              
     e( 51 - 51) =     54.79036  eV     1   --> A              
     e( 52 - 52) =     54.79760  eV     1   --> A              
     e( 53 - 53) =     56.40458  eV     1   --> A              
     e( 54 - 54) =     57.26736  eV     1   --> A              
     e( 55 - 55) =     58.92585  eV     1   --> A              
     e( 56 - 56) =     58.99767  eV     1   --> A              
     e( 57 - 57) =     65.42047  eV     1   --> A              
     e( 58 - 58) =     65.73694  eV     1   --> A              
     e( 59 - 59) =     67.62930  eV     1   --> A              
     e( 60 - 60) =     67.63077  eV     1   --> A              
     e( 61 - 61) =     67.82272  eV     1   --> A              
     e( 62 - 62) =     68.08563  eV     1   --> A              
     e( 63 - 63) =     70.94925  eV     1   --> A              
     e( 64 - 64) =     70.95120  eV     1   --> A              
     e( 65 - 65) =     70.97630  eV     1   --> A              
     e( 66 - 66) =     71.40585  eV     1   --> A              
     e( 67 - 67) =     71.40659  eV     1   --> A              
     e( 68 - 68) =     72.39568  eV     1   --> A              
     e( 69 - 69) =     72.42512  eV     1   --> A              
     e( 70 - 70) =     72.75139  eV     1   --> A              
     e( 71 - 71) =     73.23276  eV     1   --> A              
     e( 72 - 72) =     73.64256  eV     1   --> A              
     e( 73 - 73) =     74.22233  eV     1   --> A              
     e( 74 - 74) =     77.54036  eV     1   --> A              
     e( 75 - 75) =     79.91710  eV     1   --> A              
     e( 76 - 76) =     80.10939  eV     1   --> A              
     e( 77 - 77) =     80.81845  eV     1   --> A              
     e( 78 - 78) =     82.99116  eV     1   --> A              
     e( 79 - 79) =     83.08510  eV     1   --> A              
     e( 80 - 80) =     87.89271  eV     1   --> A              
     e( 81 - 81) =     87.90011  eV     1   --> A              
     e( 82 - 82) =     87.90109  eV     1   --> A              
     e( 83 - 83) =     88.52128  eV     1   --> A              
     e( 84 - 84) =     89.78225  eV     1   --> A              
     e( 85 - 85) =     90.40222  eV     1   --> A              
     e( 86 - 86) =     90.65170  eV     1   --> A              
     e( 87 - 87) =     90.78293  eV     1   --> A              
     e( 88 - 88) =     90.82188  eV     1   --> A              
     e( 89 - 89) =     92.29660  eV     1   --> A              
     e( 90 - 90) =     92.81768  eV     1   --> A              
     e( 91 - 91) =     92.81931  eV     1   --> A              
     e( 92 - 92) =     92.83572  eV     1   --> A              
     e( 93 - 93) =     93.04489  eV     1   --> A              
     e( 94 - 94) =     93.73027  eV     1   --> A              
     e( 95 - 95) =     93.78828  eV     1   --> A              
     e( 96 - 96) =     93.82559  eV     1   --> A              
     e( 97 - 97) =     94.28995  eV     1   --> A              
     e( 98 - 98) =     95.10601  eV     1   --> A              
     e( 99 - 99) =     95.34344  eV     1   --> A              
     e(100 -100) =     95.34397  eV     1   --> A              

 **************************************************************************

 **************************************************************************

                    xk=(   0.00000,  -0.06461,  -0.03957  )

     Band symmetry, C_1 (1)     point group:

     e(  1 -  1) =    -90.71297  eV     1   --> A              
     e(  2 -  2) =    -88.55191  eV     1   --> A              
     e(  3 -  3) =    -51.03729  eV     1   --> A              
     e(  4 -  4) =    -51.02281  eV     1   --> A              
     e(  5 -  5) =    -51.02206  eV     1   --> A              
     e(  6 -  6) =    -48.92831  eV     1   --> A              
     e(  7 -  7) =    -48.91333  eV     1   --> A              
     e(  8 -  8) =    -48.91297  eV     1   --> A              
     e(  9 -  9) =     -5.49043  eV     1   --> A              
     e( 10 - 10) =     -4.02266  eV     1   --> A              
     e( 11 - 11) =      2.47099  eV     1   --> A              
     e( 12 - 12) =      5.64585  eV     1   --> A              
     e( 13 - 13) =      5.66154  eV     1   --> A              
     e( 14 - 14) =      8.24729  eV     1   --> A              
     e( 15 - 15) =      8.27774  eV     1   --> A              
     e( 16 - 16) =      8.41415  eV     1   --> A              
     e( 17 - 17) =      9.17583  eV     1   --> A              
     e( 18 - 18) =      9.28492  eV     1   --> A              
     e( 19 - 19) =      9.57558  eV     1   --> A              
     e( 20 - 20) =      9.61575  eV     1   --> A              
     e( 21 - 21) =      9.67675  eV     1   --> A              
     e( 22 - 22) =     10.41249  eV     1   --> A              
     e( 23 - 23) =     11.01782  eV     1   --> A              
     e( 24 - 24) =     11.03812  eV     1   --> A              
     e( 25 - 25) =     16.27470  eV     1   --> A              
     e( 26 - 26) =     16.65126  eV     1   --> A              
     e( 27 - 27) =     16.65742  eV     1   --> A              
     e( 28 - 28) =     20.18815  eV     1   --> A              
     e( 29 - 29) =     24.65584  eV     1   --> A              
     e( 30 - 30) =     28.41554  eV     1   --> A              
     e( 31 - 31) =     28.57825  eV     1   --> A              
     e( 32 - 32) =     31.74458  eV     1   --> A              
     e( 33 - 33) =     33.33389  eV     1   --> A              
     e( 34 - 34) =     33.33410  eV     1   --> A              
     e( 35 - 35) =     33.68942  eV     1   --> A              
     e( 36 - 36) =     35.91898  eV     1   --> A              
     e( 37 - 37) =     36.70316  eV     1   --> A              
     e( 38 - 38) =     36.70913  eV     1   --> A              
     e( 39 - 39) =     37.04332  eV     1   --> A              
     e( 40 - 40) =     39.70731  eV     1   --> A              
     e( 41 - 41) =     40.23563  eV     1   --> A              
     e( 42 - 42) =     40.79631  eV     1   --> A              
     e( 43 - 43) =     40.81216  eV     1   --> A              
     e( 44 - 44) =     41.63412  eV     1   --> A              
     e( 45 - 45) =     43.49677  eV     1   --> A              
     e( 46 - 46) =     43.64111  eV     1   --> A              
     e( 47 - 47) =     50.36860  eV     1   --> A              
     e( 48 - 48) =     50.80760  eV     1   --> A              
     e( 49 - 49) =     50.80989  eV     1   --> A              
     e( 50 - 50) =     51.55911  eV     1   --> A              
     e( 51 - 51) =     54.75236  eV     1   --> A              
     e( 52 - 52) =     54.76717  eV     1   --> A              
     e( 53 - 53) =     56.22666  eV     1   --> A              
     e( 54 - 54) =     57.49532  eV     1   --> A              
     e( 55 - 55) =     58.87558  eV     1   --> A              
     e( 56 - 56) =     59.03915  eV     1   --> A              
     e( 57 - 57) =     65.14431  eV     1   --> A              
     e( 58 - 58) =     65.79310  eV     1   --> A              
     e( 59 - 59) =     67.20168  eV     1   --> A              
     e( 60 - 60) =     67.20289  eV     1   --> A              
     e( 61 - 61) =     68.00920  eV     1   --> A              
     e( 62 - 62) =     68.10282  eV     1   --> A              
     e( 63 - 63) =     70.96092  eV     1   --> A              
     e( 64 - 64) =     70.96267  eV     1   --> A              
     e( 65 - 65) =     70.97728  eV     1   --> A              
     e( 66 - 66) =     71.86676  eV     1   --> A              
     e( 67 - 67) =     71.86744  eV     1   --> A              
     e( 68 - 68) =     72.18810  eV     1   --> A              
     e( 69 - 69) =     72.46784  eV     1   --> A              
     e( 70 - 70) =     72.80954  eV     1   --> A              
     e( 71 - 71) =     72.89787  eV     1   --> A              
     e( 72 - 72) =     73.70467  eV     1   --> A              
     e( 73 - 73) =     74.23123  eV     1   --> A              
     e( 74 - 74) =     77.99712  eV     1   --> A              
     e( 75 - 75) =     79.54260  eV     1   --> A              
     e( 76 - 76) =     79.98223  eV     1   --> A              
     e( 77 - 77) =     80.75346  eV     1   --> A              
     e( 78 - 78) =     83.35870  eV     1   --> A              
     e( 79 - 79) =     83.47154  eV     1   --> A              
     e( 80 - 80) =     87.77441  eV     1   --> A              
     e( 81 - 81) =     87.79172  eV     1   --> A              
     e( 82 - 82) =     87.79497  eV     1   --> A              
     e( 83 - 83) =     87.94710  eV     1   --> A              
     e( 84 - 84) =     89.61739  eV     1   --> A              
     e( 85 - 85) =     90.22986  eV     1   --> A              
     e( 86 - 86) =     90.30499  eV     1   --> A              
     e( 87 - 87) =     90.63418  eV     1   --> A              
     e( 88 - 88) =     90.80109  eV     1   --> A              
     e( 89 - 89) =     92.09223  eV     1   --> A              
     e( 90 - 90) =     92.35689  eV     1   --> A              
     e( 91 - 91) =     92.40900  eV     1   --> A              
     e( 92 - 92) =     92.41141  eV     1   --> A              
     e( 93 - 93) =     92.86467  eV     1   --> A              
     e( 94 - 94) =     93.81790  eV     1   --> A              
     e( 95 - 95) =     93.84440  eV     1   --> A              
     e( 96 - 96) =     93.98107  eV     1   --> A              
     e( 97 - 97) =     94.76729  eV     1   --> A              
     e( 98 - 98) =     95.24311  eV     1   --> A              
     e( 99 - 99) =     95.66783  eV     1   --> A              
     e(100 -100) =     95.66969  eV     1   --> A              

 **************************************************************************

 **************************************************************************

                    xk=(   0.00000,  -0.08615,  -0.05275  )

     Band symmetry, C_1 (1)     point group:

     e(  1 -  1) =    -90.71301  eV     1   --> A              
     e(  2 -  2) =    -88.55208  eV     1   --> A              
     e(  3 -  3) =    -51.03740  eV     1   --> A              
     e(  4 -  4) =    -51.02305  eV     1   --> A              
     e(  5 -  5) =    -51.02230  eV     1   --> A              
     e(  6 -  6) =    -48.92842  eV     1   --> A              
     e(  7 -  7) =    -48.91372  eV     1   --> A              
     e(  8 -  8) =    -48.91310  eV     1   --> A              
     e(  9 -  9) =     -5.48439  eV     1   --> A              
     e( 10 - 10) =     -4.02679  eV     1   --> A              
     e( 11 - 11) =      2.50383  eV     1   --> A              
     e( 12 - 12) =      5.63854  eV     1   --> A              
     e( 13 - 13) =      5.66607  eV     1   --> A              
     e( 14 - 14) =      8.20311  eV     1   --> A              
     e( 15 - 15) =      8.26278  eV     1   --> A              
     e( 16 - 16) =      8.40742  eV     1   --> A              
     e( 17 - 17) =      9.10325  eV     1   --> A              
     e( 18 - 18) =      9.27729  eV     1   --> A              
     e( 19 - 19) =      9.55724  eV     1   --> A              
     e( 20 - 20) =      9.62442  eV     1   --> A              
     e( 21 - 21) =      9.71610  eV     1   --> A              
     e( 22 - 22) =     10.40860  eV     1   --> A              
     e( 23 - 23) =     11.01651  eV     1   --> A              
     e( 24 - 24) =     11.05041  eV     1   --> A              
     e( 25 - 25) =     16.34459  eV     1   --> A              
     e( 26 - 26) =     16.64022  eV     1   --> A              
     e( 27 - 27) =     16.65068  eV     1   --> A              
     e( 28 - 28) =     20.25220  eV     1   --> A              
     e( 29 - 29) =     24.64056  eV     1   --> A              
     e( 30 - 30) =     28.32613  eV     1   --> A              
     e( 31 - 31) =     28.60977  eV     1   --> A              
     e( 32 - 32) =     31.48146  eV     1   --> A              
     e( 33 - 33) =     33.30299  eV     1   --> A              
     e( 34 - 34) =     33.30329  eV     1   --> A              
     e( 35 - 35) =     33.83981  eV     1   --> A              
     e( 36 - 36) =     36.04953  eV     1   --> A              
     e( 37 - 37) =     36.60481  eV     1   --> A              
     e( 38 - 38) =     36.61006  eV     1   --> A              
     e( 39 - 39) =     37.18544  eV     1   --> A              
     e( 40 - 40) =     39.43370  eV     1   --> A              
     e( 41 - 41) =     40.24883  eV     1   --> A              
     e( 42 - 42) =     40.97398  eV     1   --> A              
     e( 43 - 43) =     40.98596  eV     1   --> A              
     e( 44 - 44) =     41.79323  eV     1   --> A              
     e( 45 - 45) =     43.53880  eV     1   --> A              
     e( 46 - 46) =     43.78906  eV     1   --> A              
     e( 47 - 47) =     50.18608  eV     1   --> A              
     e( 48 - 48) =     50.80427  eV     1   --> A              
     e( 49 - 49) =     50.80655  eV     1   --> A              
     e( 50 - 50) =     51.77194  eV     1   --> A              
     e( 51 - 51) =     54.70267  eV     1   --> A              
     e( 52 - 52) =     54.72505  eV     1   --> A              
     e( 53 - 53) =     56.06118  eV     1   --> A              
     e( 54 - 54) =     57.72111  eV     1   --> A              
     e( 55 - 55) =     58.80730  eV     1   --> A              
     e( 56 - 56) =     59.10390  eV     1   --> A              
     e( 57 - 57) =     64.82017  eV     1   --> A              
     e( 58 - 58) =     65.86249  eV     1   --> A              
     e( 59 - 59) =     66.72105  eV     1   --> A              
     e( 60 - 60) =     66.72151  eV     1   --> A              
     e( 61 - 61) =     68.12688  eV     1   --> A              
     e( 62 - 62) =     68.20908  eV     1   --> A              
     e( 63 - 63) =     70.97593  eV     1   --> A              
     e( 64 - 64) =     70.97722  eV     1   --> A              
     e( 65 - 65) =     70.97795  eV     1   --> A              
     e( 66 - 66) =     71.87359  eV     1   --> A              
     e( 67 - 67) =     72.38619  eV     1   --> A              
     e( 68 - 68) =     72.40315  eV     1   --> A              
     e( 69 - 69) =     72.54186  eV     1   --> A              
     e( 70 - 70) =     72.56152  eV     1   --> A              
     e( 71 - 71) =     72.87862  eV     1   --> A              
     e( 72 - 72) =     73.79429  eV     1   --> A              
     e( 73 - 73) =     74.24302  eV     1   --> A              
     e( 74 - 74) =     78.52209  eV     1   --> A              
     e( 75 - 75) =     79.10805  eV     1   --> A              
     e( 76 - 76) =     79.86876  eV     1   --> A              
     e( 77 - 77) =     80.70323  eV     1   --> A              
     e( 78 - 78) =     83.81168  eV     1   --> A              
     e( 79 - 79) =     83.88036  eV     1   --> A              
     e( 80 - 80) =     87.31883  eV     1   --> A              
     e( 81 - 81) =     87.61085  eV     1   --> A              
     e( 82 - 82) =     87.63181  eV     1   --> A              
     e( 83 - 83) =     87.63406  eV     1   --> A              
     e( 84 - 84) =     89.40702  eV     1   --> A              
     e( 85 - 85) =     89.83786  eV     1   --> A              
     e( 86 - 86) =     89.90011  eV     1   --> A              
     e( 87 - 87) =     90.41788  eV     1   --> A              
     e( 88 - 88) =     90.72279  eV     1   --> A              
     e( 89 - 89) =     91.83841  eV     1   --> A              
     e( 90 - 90) =     91.99113  eV     1   --> A              
     e( 91 - 91) =     91.99181  eV     1   --> A              
     e( 92 - 92) =     92.13526  eV     1   --> A              
     e( 93 - 93) =     92.63290  eV     1   --> A              
     e( 94 - 94) =     93.87463  eV     1   --> A              
     e( 95 - 95) =     93.88966  eV     1   --> A              
     e( 96 - 96) =     94.21403  eV     1   --> A              
     e( 97 - 97) =     95.22780  eV     1   --> A              
     e( 98 - 98) =     95.41520  eV     1   --> A              
     e( 99 - 99) =     96.03813  eV     1   --> A              
     e(100 -100) =     96.04127  eV     1   --> A              

 **************************************************************************

 **************************************************************************

                    xk=(   0.00000,  -0.10768,  -0.06594  )

     Band symmetry, C_1 (1)     point group:

     e(  1 -  1) =    -90.71306  eV     1   --> A              
     e(  2 -  2) =    -88.55230  eV     1   --> A              
     e(  3 -  3) =    -51.03754  eV     1   --> A              
     e(  4 -  4) =    -51.02341  eV     1   --> A              
     e(  5 -  5) =    -51.02255  eV     1   --> A              
     e(  6 -  6) =    -48.92856  eV     1   --> A              
     e(  7 -  7) =    -48.91423  eV     1   --> A              
     e(  8 -  8) =    -48.91326  eV     1   --> A              
     e(  9 -  9) =     -5.47651  eV     1   --> A              
     e( 10 - 10) =     -4.03197  eV     1   --> A              
     e( 11 - 11) =      2.54571  eV     1   --> A              
     e( 12 - 12) =      5.62932  eV     1   --> A              
     e( 13 - 13) =      5.67181  eV     1   --> A              
     e( 14 - 14) =      8.14218  eV     1   --> A              
     e( 15 - 15) =      8.24383  eV     1   --> A              
     e( 16 - 16) =      8.40039  eV     1   --> A              
     e( 17 - 17) =      9.02402  eV     1   --> A              
     e( 18 - 18) =      9.26907  eV     1   --> A              
     e( 19 - 19) =      9.53677  eV     1   --> A              
     e( 20 - 20) =      9.63434  eV     1   --> A              
     e( 21 - 21) =      9.75473  eV     1   --> A              
     e( 22 - 22) =     10.40355  eV     1   --> A              
     e( 23 - 23) =     11.01511  eV     1   --> A              
     e( 24 - 24) =     11.06554  eV     1   --> A              
     e( 25 - 25) =     16.43188  eV     1   --> A              
     e( 26 - 26) =     16.62726  eV     1   --> A              
     e( 27 - 27) =     16.64236  eV     1   --> A              
     e( 28 - 28) =     20.33240  eV     1   --> A              
     e( 29 - 29) =     24.62100  eV     1   --> A              
     e( 30 - 30) =     28.21734  eV     1   --> A              
     e( 31 - 31) =     28.64985  eV     1   --> A              
     e( 32 - 32) =     31.19943  eV     1   --> A              
     e( 33 - 33) =     33.26053  eV     1   --> A              
     e( 34 - 34) =     33.26098  eV     1   --> A              
     e( 35 - 35) =     33.97904  eV     1   --> A              
     e( 36 - 36) =     36.20330  eV     1   --> A              
     e( 37 - 37) =     36.49763  eV     1   --> A              
     e( 38 - 38) =     36.50166  eV     1   --> A              
     e( 39 - 39) =     37.36628  eV     1   --> A              
     e( 40 - 40) =     39.15560  eV     1   --> A              
     e( 41 - 41) =     40.26159  eV     1   --> A              
     e( 42 - 42) =     41.18892  eV     1   --> A              
     e( 43 - 43) =     41.19759  eV     1   --> A              
     e( 44 - 44) =     41.93802  eV     1   --> A              
     e( 45 - 45) =     43.59224  eV     1   --> A              
     e( 46 - 46) =     43.96870  eV     1   --> A              
     e( 47 - 47) =     50.00016  eV     1   --> A              
     e( 48 - 48) =     50.79998  eV     1   --> A              
     e( 49 - 49) =     50.80226  eV     1   --> A              
     e( 50 - 50) =     51.99727  eV     1   --> A              
     e( 51 - 51) =     54.64469  eV     1   --> A              
     e( 52 - 52) =     54.67175  eV     1   --> A              
     e( 53 - 53) =     55.90790  eV     1   --> A              
     e( 54 - 54) =     57.93439  eV     1   --> A              
     e( 55 - 55) =     58.72271  eV     1   --> A              
     e( 56 - 56) =     59.19941  eV     1   --> A              
     e( 57 - 57) =     64.46844  eV     1   --> A              
     e( 58 - 58) =     65.93291  eV     1   --> A              
     e( 59 - 59) =     66.21589  eV     1   --> A              
     e( 60 - 60) =     66.21953  eV     1   --> A              
     e( 61 - 61) =     68.15780  eV     1   --> A              
     e( 62 - 62) =     68.40404  eV     1   --> A              
     e( 63 - 63) =     70.97751  eV     1   --> A              
     e( 64 - 64) =     70.99477  eV     1   --> A              
     e( 65 - 65) =     70.99531  eV     1   --> A              
     e( 66 - 66) =     71.48777  eV     1   --> A              
     e( 67 - 67) =     72.24497  eV     1   --> A              
     e( 68 - 68) =     72.59794  eV     1   --> A              
     e( 69 - 69) =     72.94467  eV     1   --> A              
     e( 70 - 70) =     72.97415  eV     1   --> A              
     e( 71 - 71) =     72.98655  eV     1   --> A              
     e( 72 - 72) =     73.91237  eV     1   --> A              
     e( 73 - 73) =     74.25699  eV     1   --> A              
     e( 74 - 74) =     78.65441  eV     1   --> A              
     e( 75 - 75) =     79.04511  eV     1   --> A              
     e( 76 - 76) =     79.82333  eV     1   --> A              
     e( 77 - 77) =     80.65642  eV     1   --> A              
     e( 78 - 78) =     84.27836  eV     1   --> A              
     e( 79 - 79) =     84.32695  eV     1   --> A              
     e( 80 - 80) =     86.68427  eV     1   --> A              
     e( 81 - 81) =     87.37810  eV     1   --> A              
     e( 82 - 82) =     87.39527  eV     1   --> A              
     e( 83 - 83) =     87.39630  eV     1   --> A              
     e( 84 - 84) =     89.15757  eV     1   --> A              
     e( 85 - 85) =     89.40934  eV     1   --> A              
     e( 86 - 86) =     89.49034  eV     1   --> A              
     e( 87 - 87) =     90.18329  eV     1   --> A              
     e( 88 - 88) =     90.48886  eV     1   --> A              
     e( 89 - 89) =     91.30402  eV     1   --> A              
     e( 90 - 90) =     91.57882  eV     1   --> A              
     e( 91 - 91) =     91.58027  eV     1   --> A              
     e( 92 - 92) =     92.34393  eV     1   --> A              
     e( 93 - 93) =     92.38138  eV     1   --> A              
     e( 94 - 94) =     93.91858  eV     1   --> A              
     e( 95 - 95) =     93.92961  eV     1   --> A              
     e( 96 - 96) =     94.49846  eV     1   --> A              
     e( 97 - 97) =     95.50604  eV     1   --> A              
     e( 98 - 98) =     95.75113  eV     1   --> A              
     e( 99 - 99) =     96.44019  eV     1   --> A              
     e(100 -100) =     96.44441  eV     1   --> A              

 **************************************************************************

 **************************************************************************

                    xk=(   0.00000,  -0.12922,  -0.07913  )

     Band symmetry, C_1 (1)     point group:

     e(  1 -  1) =    -90.71312  eV     1   --> A              
     e(  2 -  2) =    -88.55255  eV     1   --> A              
     e(  3 -  3) =    -51.03770  eV     1   --> A              
     e(  4 -  4) =    -51.02390  eV     1   --> A              
     e(  5 -  5) =    -51.02279  eV     1   --> A              
     e(  6 -  6) =    -48.92873  eV     1   --> A              
     e(  7 -  7) =    -48.91484  eV     1   --> A              
     e(  8 -  8) =    -48.91345  eV     1   --> A              
     e(  9 -  9) =     -5.46672  eV     1   --> A              
     e( 10 - 10) =     -4.03812  eV     1   --> A              
     e( 11 - 11) =      2.59635  eV     1   --> A              
     e( 12 - 12) =      5.61832  eV     1   --> A              
     e( 13 - 13) =      5.67867  eV     1   --> A              
     e( 14 - 14) =      8.06330  eV     1   --> A              
     e( 15 - 15) =      8.22113  eV     1   --> A              
     e( 16 - 16) =      8.39270  eV     1   --> A              
     e( 17 - 17) =      8.94129  eV     1   --> A              
     e( 18 - 18) =      9.26097  eV     1   --> A              
     e( 19 - 19) =      9.51572  eV     1   --> A              
     e( 20 - 20) =      9.64498  eV     1   --> A              
     e( 21 - 21) =      9.79120  eV     1   --> A              
     e( 22 - 22) =     10.39735  eV     1   --> A              
     e( 23 - 23) =     11.01385  eV     1   --> A              
     e( 24 - 24) =     11.08301  eV     1   --> A              
     e( 25 - 25) =     16.53493  eV     1   --> A              
     e( 26 - 26) =     16.61317  eV     1   --> A              
     e( 27 - 27) =     16.63272  eV     1   --> A              
     e( 28 - 28) =     20.42731  eV     1   --> A              
     e( 29 - 29) =     24.59727  eV     1   --> A              
     e( 30 - 30) =     28.09278  eV     1   --> A              
     e( 31 - 31) =     28.69815  eV     1   --> A              
     e( 32 - 32) =     30.90626  eV     1   --> A              
     e( 33 - 33) =     33.20480  eV     1   --> A              
     e( 34 - 34) =     33.20545  eV     1   --> A              
     e( 35 - 35) =     34.10201  eV     1   --> A              
     e( 36 - 36) =     36.35611  eV     1   --> A              
     e( 37 - 37) =     36.39267  eV     1   --> A              
     e( 38 - 38) =     36.40134  eV     1   --> A              
     e( 39 - 39) =     37.58339  eV     1   --> A              
     e( 40 - 40) =     38.89138  eV     1   --> A              
     e( 41 - 41) =     40.27500  eV     1   --> A              
     e( 42 - 42) =     41.43246  eV     1   --> A              
     e( 43 - 43) =     41.43904  eV     1   --> A              
     e( 44 - 44) =     42.06861  eV     1   --> A              
     e( 45 - 45) =     43.65669  eV     1   --> A              
     e( 46 - 46) =     44.17153  eV     1   --> A              
     e( 47 - 47) =     49.81053  eV     1   --> A              
     e( 48 - 48) =     50.79474  eV     1   --> A              
     e( 49 - 49) =     50.79702  eV     1   --> A              
     e( 50 - 50) =     52.23570  eV     1   --> A              
     e( 51 - 51) =     54.58243  eV     1   --> A              
     e( 52 - 52) =     54.60790  eV     1   --> A              
     e( 53 - 53) =     55.76553  eV     1   --> A              
     e( 54 - 54) =     58.12378  eV     1   --> A              
     e( 55 - 55) =     58.62355  eV     1   --> A              
     e( 56 - 56) =     59.33454  eV     1   --> A              
     e( 57 - 57) =     64.10179  eV     1   --> A              
     e( 58 - 58) =     65.69316  eV     1   --> A              
     e( 59 - 59) =     65.70119  eV     1   --> A              
     e( 60 - 60) =     66.01066  eV     1   --> A              
     e( 61 - 61) =     68.19556  eV     1   --> A              
     e( 62 - 62) =     68.58523  eV     1   --> A              
     e( 63 - 63) =     70.97517  eV     1   --> A              
     e( 64 - 64) =     71.00867  eV     1   --> A              
     e( 65 - 65) =     71.01756  eV     1   --> A              
     e( 66 - 66) =     71.07136  eV     1   --> A              
     e( 67 - 67) =     71.94841  eV     1   --> A              
     e( 68 - 68) =     72.68939  eV     1   --> A              
     e( 69 - 69) =     73.02643  eV     1   --> A              
     e( 70 - 70) =     73.56652  eV     1   --> A              
     e( 71 - 71) =     73.56898  eV     1   --> A              
     e( 72 - 72) =     74.05851  eV     1   --> A              
     e( 73 - 73) =     74.27218  eV     1   --> A              
     e( 74 - 74) =     78.20718  eV     1   --> A              
     e( 75 - 75) =     79.36653  eV     1   --> A              
     e( 76 - 76) =     80.03479  eV     1   --> A              
     e( 77 - 77) =     80.60714  eV     1   --> A              
     e( 78 - 78) =     84.63163  eV     1   --> A              
     e( 79 - 79) =     84.88912  eV     1   --> A              
     e( 80 - 80) =     86.05142  eV     1   --> A              
     e( 81 - 81) =     87.06731  eV     1   --> A              
     e( 82 - 82) =     87.06770  eV     1   --> A              
     e( 83 - 83) =     87.08262  eV     1   --> A              
     e( 84 - 84) =     88.86872  eV     1   --> A              
     e( 85 - 85) =     88.99842  eV     1   --> A              
     e( 86 - 86) =     89.12622  eV     1   --> A              
     e( 87 - 87) =     89.94070  eV     1   --> A              
     e( 88 - 88) =     90.21127  eV     1   --> A              
     e( 89 - 89) =     90.76428  eV     1   --> A              
     e( 90 - 90) =     91.17830  eV     1   --> A              
     e( 91 - 91) =     91.17944  eV     1   --> A              
     e( 92 - 92) =     92.07228  eV     1   --> A              
     e( 93 - 93) =     92.65581  eV     1   --> A              
     e( 94 - 94) =     93.95740  eV     1   --> A              
     e( 95 - 95) =     93.96717  eV     1   --> A              
     e( 96 - 96) =     94.81820  eV     1   --> A              
     e( 97 - 97) =     95.64394  eV     1   --> A              
     e( 98 - 98) =     96.18308  eV     1   --> A              
     e( 99 - 99) =     96.83437  eV     1   --> A              
     e(100 -100) =     96.84051  eV     1   --> A              

 **************************************************************************

 **************************************************************************

                    xk=(   0.00000,  -0.15076,  -0.09232  )

     Band symmetry, C_1 (1)     point group:

     e(  1 -  1) =    -90.71319  eV     1   --> A              
     e(  2 -  2) =    -88.55283  eV     1   --> A              
     e(  3 -  3) =    -51.03790  eV     1   --> A              
     e(  4 -  4) =    -51.02451  eV     1   --> A              
     e(  5 -  5) =    -51.02304  eV     1   --> A              
     e(  6 -  6) =    -48.92892  eV     1   --> A              
     e(  7 -  7) =    -48.91556  eV     1   --> A              
     e(  8 -  8) =    -48.91368  eV     1   --> A              
     e(  9 -  9) =     -5.45494  eV     1   --> A              
     e( 10 - 10) =     -4.04515  eV     1   --> A              
     e( 11 - 11) =      2.65543  eV     1   --> A              
     e( 12 - 12) =      5.60571  eV     1   --> A              
     e( 13 - 13) =      5.68657  eV     1   --> A              
     e( 14 - 14) =      7.96586  eV     1   --> A              
     e( 15 - 15) =      8.19500  eV     1   --> A              
     e( 16 - 16) =      8.38343  eV     1   --> A              
     e( 17 - 17) =      8.85794  eV     1   --> A              
     e( 18 - 18) =      9.25356  eV     1   --> A              
     e( 19 - 19) =      9.49540  eV     1   --> A              
     e( 20 - 20) =      9.65593  eV     1   --> A              
     e( 21 - 21) =      9.82475  eV     1   --> A              
     e( 22 - 22) =     10.39002  eV     1   --> A              
     e( 23 - 23) =     11.01301  eV     1   --> A              
     e( 24 - 24) =     11.10230  eV     1   --> A              
     e( 25 - 25) =     16.59868  eV     1   --> A              
     e( 26 - 26) =     16.62202  eV     1   --> A              
     e( 27 - 27) =     16.65197  eV     1   --> A              
     e( 28 - 28) =     20.53531  eV     1   --> A              
     e( 29 - 29) =     24.56951  eV     1   --> A              
     e( 30 - 30) =     27.95612  eV     1   --> A              
     e( 31 - 31) =     28.75429  eV     1   --> A              
     e( 32 - 32) =     30.60661  eV     1   --> A              
     e( 33 - 33) =     33.13411  eV     1   --> A              
     e( 34 - 34) =     33.13503  eV     1   --> A              
     e( 35 - 35) =     34.20767  eV     1   --> A              
     e( 36 - 36) =     36.28437  eV     1   --> A              
     e( 37 - 37) =     36.29059  eV     1   --> A              
     e( 38 - 38) =     36.52528  eV     1   --> A              
     e( 39 - 39) =     37.83338  eV     1   --> A              
     e( 40 - 40) =     38.66438  eV     1   --> A              
     e( 41 - 41) =     40.29023  eV     1   --> A              
     e( 42 - 42) =     41.69723  eV     1   --> A              
     e( 43 - 43) =     41.70342  eV     1   --> A              
     e( 44 - 44) =     42.18877  eV     1   --> A              
     e( 45 - 45) =     43.73173  eV     1   --> A              
     e( 46 - 46) =     44.38859  eV     1   --> A              
     e( 47 - 47) =     49.61681  eV     1   --> A              
     e( 48 - 48) =     50.78860  eV     1   --> A              
     e( 49 - 49) =     50.79087  eV     1   --> A              
     e( 50 - 50) =     52.48803  eV     1   --> A              
     e( 51 - 51) =     54.52023  eV     1   --> A              
     e( 52 - 52) =     54.53429  eV     1   --> A              
     e( 53 - 53) =     55.63237  eV     1   --> A              
     e( 54 - 54) =     58.28043  eV     1   --> A              
     e( 55 - 55) =     58.51139  eV     1   --> A              
     e( 56 - 56) =     59.51528  eV     1   --> A              
     e( 57 - 57) =     63.72906  eV     1   --> A              
     e( 58 - 58) =     65.18123  eV     1   --> A              
     e( 59 - 59) =     65.18581  eV     1   --> A              
     e( 60 - 60) =     66.04855  eV     1   --> A              
     e( 61 - 61) =     68.24017  eV     1   --> A              
     e( 62 - 62) =     68.74958  eV     1   --> A              
     e( 63 - 63) =     70.63139  eV     1   --> A              
     e( 64 - 64) =     70.96984  eV     1   --> A              
     e( 65 - 65) =     71.04420  eV     1   --> A              
     e( 66 - 66) =     71.04635  eV     1   --> A              
     e( 67 - 67) =     71.66551  eV     1   --> A              
     e( 68 - 68) =     72.77329  eV     1   --> A              
     e( 69 - 69) =     73.10214  eV     1   --> A              
     e( 70 - 70) =     74.16731  eV     1   --> A              
     e( 71 - 71) =     74.17298  eV     1   --> A              
     e( 72 - 72) =     74.23685  eV     1   --> A              
     e( 73 - 73) =     74.28744  eV     1   --> A              
     e( 74 - 74) =     77.78664  eV     1   --> A              
     e( 75 - 75) =     79.41197  eV     1   --> A              
     e( 76 - 76) =     80.55242  eV     1   --> A              
     e( 77 - 77) =     80.56901  eV     1   --> A              
     e( 78 - 78) =     84.82118  eV     1   --> A              
     e( 79 - 79) =     85.48606  eV     1   --> A              
     e( 80 - 80) =     85.53387  eV     1   --> A              
     e( 81 - 81) =     86.63869  eV     1   --> A              
     e( 82 - 82) =     86.64001  eV     1   --> A              
     e( 83 - 83) =     86.72671  eV     1   --> A              
     e( 84 - 84) =     88.55789  eV     1   --> A              
     e( 85 - 85) =     88.63135  eV     1   --> A              
     e( 86 - 86) =     88.82266  eV     1   --> A              
     e( 87 - 87) =     89.69451  eV     1   --> A              
     e( 88 - 88) =     89.94355  eV     1   --> A              
     e( 89 - 89) =     90.22435  eV     1   --> A              
     e( 90 - 90) =     90.79289  eV     1   --> A              
     e( 91 - 91) =     90.79363  eV     1   --> A              
     e( 92 - 92) =     91.77724  eV     1   --> A              
     e( 93 - 93) =     92.96050  eV     1   --> A              
     e( 94 - 94) =     93.99378  eV     1   --> A              
     e( 95 - 95) =     94.00390  eV     1   --> A              
     e( 96 - 96) =     95.16278  eV     1   --> A              
     e( 97 - 97) =     95.73581  eV     1   --> A              
     e( 98 - 98) =     96.59890  eV     1   --> A              
     e( 99 - 99) =     96.73649  eV     1   --> A              
     e(100 -100) =     96.74073  eV     1   --> A              

 **************************************************************************

 **************************************************************************

                    xk=(   0.00000,  -0.17229,  -0.10551  )

     Band symmetry, C_1 (1)     point group:

     e(  1 -  1) =    -90.71327  eV     1   --> A              
     e(  2 -  2) =    -88.55313  eV     1   --> A              
     e(  3 -  3) =    -51.03813  eV     1   --> A              
     e(  4 -  4) =    -51.02522  eV     1   --> A              
     e(  5 -  5) =    -51.02330  eV     1   --> A              
     e(  6 -  6) =    -48.92915  eV     1   --> A              
     e(  7 -  7) =    -48.91637  eV     1   --> A              
     e(  8 -  8) =    -48.91393  eV     1   --> A              
     e(  9 -  9) =     -5.44106  eV     1   --> A              
     e( 10 - 10) =     -4.05296  eV     1   --> A              
     e( 11 - 11) =      2.72259  eV     1   --> A              
     e( 12 - 12) =      5.59169  eV     1   --> A              
     e( 13 - 13) =      5.69540  eV     1   --> A              
     e( 14 - 14) =      7.84993  eV     1   --> A              
     e( 15 - 15) =      8.16585  eV     1   --> A              
     e( 16 - 16) =      8.37097  eV     1   --> A              
     e( 17 - 17) =      8.77694  eV     1   --> A              
     e( 18 - 18) =      9.24723  eV     1   --> A              
     e( 19 - 19) =      9.47677  eV     1   --> A              
     e( 20 - 20) =      9.66687  eV     1   --> A              
     e( 21 - 21) =      9.85488  eV     1   --> A              
     e( 22 - 22) =     10.38158  eV     1   --> A              
     e( 23 - 23) =     11.01286  eV     1   --> A              
     e( 24 - 24) =     11.12284  eV     1   --> A              
     e( 25 - 25) =     16.58458  eV     1   --> A              
     e( 26 - 26) =     16.61058  eV     1   --> A              
     e( 27 - 27) =     16.78114  eV     1   --> A              
     e( 28 - 28) =     20.65463  eV     1   --> A              
     e( 29 - 29) =     24.53791  eV     1   --> A              
     e( 30 - 30) =     27.81087  eV     1   --> A              
     e( 31 - 31) =     28.81781  eV     1   --> A              
     e( 32 - 32) =     30.30357  eV     1   --> A              
     e( 33 - 33) =     33.04705  eV     1   --> A              
     e( 34 - 34) =     33.04831  eV     1   --> A              
     e( 35 - 35) =     34.29711  eV     1   --> A              
     e( 36 - 36) =     36.19655  eV     1   --> A              
     e( 37 - 37) =     36.20142  eV     1   --> A              
     e( 38 - 38) =     36.63186  eV     1   --> A              
     e( 39 - 39) =     38.11235  eV     1   --> A              
     e( 40 - 40) =     38.50975  eV     1   --> A              
     e( 41 - 41) =     40.30830  eV     1   --> A              
     e( 42 - 42) =     41.97561  eV     1   --> A              
     e( 43 - 43) =     41.98506  eV     1   --> A              
     e( 44 - 44) =     42.30456  eV     1   --> A              
     e( 45 - 45) =     43.81689  eV     1   --> A              
     e( 46 - 46) =     44.61156  eV     1   --> A              
     e( 47 - 47) =     49.41874  eV     1   --> A              
     e( 48 - 48) =     50.78164  eV     1   --> A              
     e( 49 - 49) =     50.78391  eV     1   --> A              
     e( 50 - 50) =     52.75498  eV     1   --> A              
     e( 51 - 51) =     54.45182  eV     1   --> A              
     e( 52 - 52) =     54.46237  eV     1   --> A              
     e( 53 - 53) =     55.50669  eV     1   --> A              
     e( 54 - 54) =     58.38749  eV     1   --> A              
     e( 55 - 55) =     58.40247  eV     1   --> A              
     e( 56 - 56) =     59.73970  eV     1   --> A              
     e( 57 - 57) =     63.35779  eV     1   --> A              
     e( 58 - 58) =     64.67097  eV     1   --> A              
     e( 59 - 59) =     64.67490  eV     1   --> A              
     e( 60 - 60) =     66.04534  eV     1   --> A              
     e( 61 - 61) =     68.29159  eV     1   --> A              
     e( 62 - 62) =     68.89749  eV     1   --> A              
     e( 63 - 63) =     70.21984  eV     1   --> A              
     e( 64 - 64) =     70.96031  eV     1   --> A              
     e( 65 - 65) =     71.07465  eV     1   --> A              
     e( 66 - 66) =     71.07566  eV     1   --> A              
     e( 67 - 67) =     71.40721  eV     1   --> A              
     e( 68 - 68) =     72.83243  eV     1   --> A              
     e( 69 - 69) =     73.17682  eV     1   --> A              
     e( 70 - 70) =     74.30077  eV     1   --> A              
     e( 71 - 71) =     74.42130  eV     1   --> A              
     e( 72 - 72) =     74.78725  eV     1   --> A              
     e( 73 - 73) =     74.79081  eV     1   --> A              
     e( 74 - 74) =     77.41301  eV     1   --> A              
     e( 75 - 75) =     79.40160  eV     1   --> A              
     e( 76 - 76) =     80.49034  eV     1   --> A              
     e( 77 - 77) =     81.19846  eV     1   --> A              
     e( 78 - 78) =     84.47084  eV     1   --> A              
     e( 79 - 79) =     85.50050  eV     1   --> A              
     e( 80 - 80) =     86.04232  eV     1   --> A              
     e( 81 - 81) =     86.11909  eV     1   --> A              
     e( 82 - 82) =     86.18819  eV     1   --> A              
     e( 83 - 83) =     86.31943  eV     1   --> A              
     e( 84 - 84) =     88.25758  eV     1   --> A              
     e( 85 - 85) =     88.30952  eV     1   --> A              
     e( 86 - 86) =     88.55656  eV     1   --> A              
     e( 87 - 87) =     89.45432  eV     1   --> A              
     e( 88 - 88) =     89.68705  eV     1   --> A              
     e( 89 - 89) =     89.69351  eV     1   --> A              
     e( 90 - 90) =     90.42501  eV     1   --> A              
     e( 91 - 91) =     90.42544  eV     1   --> A              
     e( 92 - 92) =     91.49413  eV     1   --> A              
     e( 93 - 93) =     93.25617  eV     1   --> A              
     e( 94 - 94) =     94.02860  eV     1   --> A              
     e( 95 - 95) =     94.04067  eV     1   --> A              
     e( 96 - 96) =     95.52340  eV     1   --> A              
     e( 97 - 97) =     95.77917  eV     1   --> A              
     e( 98 - 98) =     96.41582  eV     1   --> A              
     e( 99 - 99) =     96.42285  eV     1   --> A              
     e(100 -100) =     96.99266  eV     1   --> A              

 **************************************************************************

 **************************************************************************

                    xk=(   0.00000,  -0.19383,  -0.11870  )

     Band symmetry, C_1 (1)     point group:

     e(  1 -  1) =    -90.71336  eV     1   --> A              
     e(  2 -  2) =    -88.55345  eV     1   --> A              
     e(  3 -  3) =    -51.03838  eV     1   --> A              
     e(  4 -  4) =    -51.02602  eV     1   --> A              
     e(  5 -  5) =    -51.02358  eV     1   --> A              
     e(  6 -  6) =    -48.92940  eV     1   --> A              
     e(  7 -  7) =    -48.91728  eV     1   --> A              
     e(  8 -  8) =    -48.91421  eV     1   --> A              
     e(  9 -  9) =     -5.42498  eV     1   --> A              
     e( 10 - 10) =     -4.06141  eV     1   --> A              
     e( 11 - 11) =      2.79739  eV     1   --> A              
     e( 12 - 12) =      5.57651  eV     1   --> A              
     e( 13 - 13) =      5.70505  eV     1   --> A              
     e( 14 - 14) =      7.71626  eV     1   --> A              
     e( 15 - 15) =      8.13413  eV     1   --> A              
     e( 16 - 16) =      8.35268  eV     1   --> A              
     e( 17 - 17) =      8.70176  eV     1   --> A              
     e( 18 - 18) =      9.24226  eV     1   --> A              
     e( 19 - 19) =      9.46045  eV     1   --> A              
     e( 20 - 20) =      9.67761  eV     1   --> A              
     e( 21 - 21) =      9.88128  eV     1   --> A              
     e( 22 - 22) =     10.37211  eV     1   --> A              
     e( 23 - 23) =     11.01370  eV     1   --> A              
     e( 24 - 24) =     11.14407  eV     1   --> A              
     e( 25 - 25) =     16.57151  eV     1   --> A              
     e( 26 - 26) =     16.59875  eV     1   --> A              
     e( 27 - 27) =     16.92065  eV     1   --> A              
     e( 28 - 28) =     20.78339  eV     1   --> A              
     e( 29 - 29) =     24.50280  eV     1   --> A              
     e( 30 - 30) =     27.66027  eV     1   --> A              
     e( 31 - 31) =     28.88820  eV     1   --> A              
     e( 32 - 32) =     29.99935  eV     1   --> A              
     e( 33 - 33) =     32.94282  eV     1   --> A              
     e( 34 - 34) =     32.94448  eV     1   --> A              
     e( 35 - 35) =     34.37243  eV     1   --> A              
     e( 36 - 36) =     36.12537  eV     1   --> A              
     e( 37 - 37) =     36.12956  eV     1   --> A              
     e( 38 - 38) =     36.64919  eV     1   --> A              
     e( 39 - 39) =     38.41617  eV     1   --> A              
     e( 40 - 40) =     38.47046  eV     1   --> A              
     e( 41 - 41) =     40.33011  eV     1   --> A              
     e( 42 - 42) =     42.25111  eV     1   --> A              
     e( 43 - 43) =     42.27927  eV     1   --> A              
     e( 44 - 44) =     42.43147  eV     1   --> A              
     e( 45 - 45) =     43.91173  eV     1   --> A              
     e( 46 - 46) =     44.83328  eV     1   --> A              
     e( 47 - 47) =     49.21635  eV     1   --> A              
     e( 48 - 48) =     50.77403  eV     1   --> A              
     e( 49 - 49) =     50.77630  eV     1   --> A              
     e( 50 - 50) =     53.03707  eV     1   --> A              
     e( 51 - 51) =     54.36155  eV     1   --> A              
     e( 52 - 52) =     54.41284  eV     1   --> A              
     e( 53 - 53) =     55.38704  eV     1   --> A              
     e( 54 - 54) =     58.25271  eV     1   --> A              
     e( 55 - 55) =     58.49488  eV     1   --> A              
     e( 56 - 56) =     59.99679  eV     1   --> A              
     e( 57 - 57) =     62.99649  eV     1   --> A              
     e( 58 - 58) =     64.16819  eV     1   --> A              
     e( 59 - 59) =     64.17190  eV     1   --> A              
     e( 60 - 60) =     65.97980  eV     1   --> A              
     e( 61 - 61) =     68.34980  eV     1   --> A              
     e( 62 - 62) =     69.03126  eV     1   --> A              
     e( 63 - 63) =     69.82933  eV     1   --> A              
     e( 64 - 64) =     70.94517  eV     1   --> A              
     e( 65 - 65) =     71.10754  eV     1   --> A              
     e( 66 - 66) =     71.10887  eV     1   --> A              
     e( 67 - 67) =     71.19731  eV     1   --> A              
     e( 68 - 68) =     72.84517  eV     1   --> A              
     e( 69 - 69) =     73.24756  eV     1   --> A              
     e( 70 - 70) =     74.31105  eV     1   --> A              
     e( 71 - 71) =     74.63491  eV     1   --> A              
     e( 72 - 72) =     75.40468  eV     1   --> A              
     e( 73 - 73) =     75.40732  eV     1   --> A              
     e( 74 - 74) =     77.10744  eV     1   --> A              
     e( 75 - 75) =     79.39702  eV     1   --> A              
     e( 76 - 76) =     80.41910  eV     1   --> A              
     e( 77 - 77) =     81.85476  eV     1   --> A              
     e( 78 - 78) =     83.85711  eV     1   --> A              
     e( 79 - 79) =     85.51679  eV     1   --> A              
     e( 80 - 80) =     85.52063  eV     1   --> A              
     e( 81 - 81) =     85.67599  eV     1   --> A              
     e( 82 - 82) =     85.87960  eV     1   --> A              
     e( 83 - 83) =     86.75526  eV     1   --> A              
     e( 84 - 84) =     87.97490  eV     1   --> A              
     e( 85 - 85) =     88.01831  eV     1   --> A              
     e( 86 - 86) =     88.32118  eV     1   --> A              
     e( 87 - 87) =     89.15410  eV     1   --> A              
     e( 88 - 88) =     89.23214  eV     1   --> A              
     e( 89 - 89) =     89.45149  eV     1   --> A              
     e( 90 - 90) =     90.07683  eV     1   --> A              
     e( 91 - 91) =     90.07714  eV     1   --> A              
     e( 92 - 92) =     91.23984  eV     1   --> A              
     e( 93 - 93) =     93.53159  eV     1   --> A              
     e( 94 - 94) =     94.06195  eV     1   --> A              
     e( 95 - 95) =     94.07855  eV     1   --> A              
     e( 96 - 96) =     95.77021  eV     1   --> A              
     e( 97 - 97) =     95.87794  eV     1   --> A              
     e( 98 - 98) =     96.11650  eV     1   --> A              
     e( 99 - 99) =     96.14438  eV     1   --> A              
     e(100 -100) =     97.36435  eV     1   --> A              

 **************************************************************************

 **************************************************************************

                    xk=(   0.00000,  -0.21537,  -0.13188  )

     Band symmetry, C_1 (1)     point group:

     e(  1 -  1) =    -90.71344  eV     1   --> A              
     e(  2 -  2) =    -88.55377  eV     1   --> A              
     e(  3 -  3) =    -51.03866  eV     1   --> A              
     e(  4 -  4) =    -51.02691  eV     1   --> A              
     e(  5 -  5) =    -51.02388  eV     1   --> A              
     e(  6 -  6) =    -48.92968  eV     1   --> A              
     e(  7 -  7) =    -48.91827  eV     1   --> A              
     e(  8 -  8) =    -48.91452  eV     1   --> A              
     e(  9 -  9) =     -5.40658  eV     1   --> A              
     e( 10 - 10) =     -4.07040  eV     1   --> A              
     e( 11 - 11) =      2.87934  eV     1   --> A              
     e( 12 - 12) =      5.56045  eV     1   --> A              
     e( 13 - 13) =      5.71537  eV     1   --> A              
     e( 14 - 14) =      7.56628  eV     1   --> A              
     e( 15 - 15) =      8.10039  eV     1   --> A              
     e( 16 - 16) =      8.32460  eV     1   --> A              
     e( 17 - 17) =      8.63671  eV     1   --> A              
     e( 18 - 18) =      9.23874  eV     1   --> A              
     e( 19 - 19) =      9.44668  eV     1   --> A              
     e( 20 - 20) =      9.68802  eV     1   --> A              
     e( 21 - 21) =      9.90369  eV     1   --> A              
     e( 22 - 22) =     10.36175  eV     1   --> A              
     e( 23 - 23) =     11.01578  eV     1   --> A              
     e( 24 - 24) =     11.16542  eV     1   --> A              
     e( 25 - 25) =     16.56005  eV     1   --> A              
     e( 26 - 26) =     16.58688  eV     1   --> A              
     e( 27 - 27) =     17.06876  eV     1   --> A              
     e( 28 - 28) =     20.91955  eV     1   --> A              
     e( 29 - 29) =     24.46462  eV     1   --> A              
     e( 30 - 30) =     27.50723  eV     1   --> A              
     e( 31 - 31) =     28.96490  eV     1   --> A              
     e( 32 - 32) =     29.69562  eV     1   --> A              
     e( 33 - 33) =     32.82141  eV     1   --> A              
     e( 34 - 34) =     32.82352  eV     1   --> A              
     e( 35 - 35) =     34.43606  eV     1   --> A              
     e( 36 - 36) =     36.07407  eV     1   --> A              
     e( 37 - 37) =     36.07784  eV     1   --> A              
     e( 38 - 38) =     36.55540  eV     1   --> A              
     e( 39 - 39) =     38.56682  eV     1   --> A              
     e( 40 - 40) =     38.74116  eV     1   --> A              
     e( 41 - 41) =     40.35650  eV     1   --> A              
     e( 42 - 42) =     42.45469  eV     1   --> A              
     e( 43 - 43) =     42.58201  eV     1   --> A              
     e( 44 - 44) =     42.63745  eV     1   --> A              
     e( 45 - 45) =     44.01586  eV     1   --> A              
     e( 46 - 46) =     45.04784  eV     1   --> A              
     e( 47 - 47) =     49.00995  eV     1   --> A              
     e( 48 - 48) =     50.76604  eV     1   --> A              
     e( 49 - 49) =     50.76831  eV     1   --> A              
     e( 50 - 50) =     53.33456  eV     1   --> A              
     e( 51 - 51) =     54.26462  eV     1   --> A              
     e( 52 - 52) =     54.37512  eV     1   --> A              
     e( 53 - 53) =     55.27234  eV     1   --> A              
     e( 54 - 54) =     58.10744  eV     1   --> A              
     e( 55 - 55) =     58.56508  eV     1   --> A              
     e( 56 - 56) =     60.26781  eV     1   --> A              
     e( 57 - 57) =     62.65827  eV     1   --> A              
     e( 58 - 58) =     63.67568  eV     1   --> A              
     e( 59 - 59) =     63.67932  eV     1   --> A              
     e( 60 - 60) =     65.83861  eV     1   --> A              
     e( 61 - 61) =     68.41471  eV     1   --> A              
     e( 62 - 62) =     69.15399  eV     1   --> A              
     e( 63 - 63) =     69.45269  eV     1   --> A              
     e( 64 - 64) =     70.92284  eV     1   --> A              
     e( 65 - 65) =     71.05404  eV     1   --> A              
     e( 66 - 66) =     71.14668  eV     1   --> A              
     e( 67 - 67) =     71.15089  eV     1   --> A              
     e( 68 - 68) =     72.78889  eV     1   --> A              
     e( 69 - 69) =     73.31201  eV     1   --> A              
     e( 70 - 70) =     74.31606  eV     1   --> A              
     e( 71 - 71) =     74.86340  eV     1   --> A              
     e( 72 - 72) =     76.02106  eV     1   --> A              
     e( 73 - 73) =     76.02324  eV     1   --> A              
     e( 74 - 74) =     76.88853  eV     1   --> A              
     e( 75 - 75) =     79.40851  eV     1   --> A              
     e( 76 - 76) =     80.33643  eV     1   --> A              
     e( 77 - 77) =     82.52102  eV     1   --> A              
     e( 78 - 78) =     83.22108  eV     1   --> A              
     e( 79 - 79) =     84.88724  eV     1   --> A              
     e( 80 - 80) =     84.88894  eV     1   --> A              
     e( 81 - 81) =     85.38372  eV     1   --> A              
     e( 82 - 82) =     85.81788  eV     1   --> A              
     e( 83 - 83) =     87.33386  eV     1   --> A              
     e( 84 - 84) =     87.70270  eV     1   --> A              
     e( 85 - 85) =     87.74101  eV     1   --> A              
     e( 86 - 86) =     88.17011  eV     1   --> A              
     e( 87 - 87) =     88.62698  eV     1   --> A              
     e( 88 - 88) =     89.01170  eV     1   --> A              
     e( 89 - 89) =     89.23264  eV     1   --> A              
     e( 90 - 90) =     89.75048  eV     1   --> A              
     e( 91 - 91) =     89.75090  eV     1   --> A              
     e( 92 - 92) =     91.02751  eV     1   --> A              
     e( 93 - 93) =     93.77678  eV     1   --> A              
     e( 94 - 94) =     94.09350  eV     1   --> A              
     e( 95 - 95) =     94.12079  eV     1   --> A              
     e( 96 - 96) =     95.70942  eV     1   --> A              
     e( 97 - 97) =     95.83141  eV     1   --> A              
     e( 98 - 98) =     95.84815  eV     1   --> A              
     e( 99 - 99) =     96.30413  eV     1   --> A              
     e(100 -100) =     97.71747  eV     1   --> A              

 **************************************************************************

 **************************************************************************

                    xk=(   0.00000,  -0.23690,  -0.14507  )

     Band symmetry, C_1 (1)     point group:

     e(  1 -  1) =    -90.71353  eV     1   --> A              
     e(  2 -  2) =    -88.55408  eV     1   --> A              
     e(  3 -  3) =    -51.03897  eV     1   --> A              
     e(  4 -  4) =    -51.02786  eV     1   --> A              
     e(  5 -  5) =    -51.02420  eV     1   --> A              
     e(  6 -  6) =    -48.92999  eV     1   --> A              
     e(  7 -  7) =    -48.91933  eV     1   --> A              
     e(  8 -  8) =    -48.91486  eV     1   --> A              
     e(  9 -  9) =     -5.38576  eV     1   --> A              
     e( 10 - 10) =     -4.07980  eV     1   --> A              
     e( 11 - 11) =      2.96788  eV     1   --> A              
     e( 12 - 12) =      5.54385  eV     1   --> A              
     e( 13 - 13) =      5.72620  eV     1   --> A              
     e( 14 - 14) =      7.40181  eV     1   --> A              
     e( 15 - 15) =      8.06519  eV     1   --> A              
     e( 16 - 16) =      8.28246  eV     1   --> A              
     e( 17 - 17) =      8.58613  eV     1   --> A              
     e( 18 - 18) =      9.23667  eV     1   --> A              
     e( 19 - 19) =      9.43548  eV     1   --> A              
     e( 20 - 20) =      9.69806  eV     1   --> A              
     e( 21 - 21) =      9.92192  eV     1   --> A              
     e( 22 - 22) =     10.35071  eV     1   --> A              
     e( 23 - 23) =     11.01933  eV     1   --> A              
     e( 24 - 24) =     11.18636  eV     1   --> A              
     e( 25 - 25) =     16.55066  eV     1   --> A              
     e( 26 - 26) =     16.57532  eV     1   --> A              
     e( 27 - 27) =     17.22379  eV     1   --> A              
     e( 28 - 28) =     21.06092  eV     1   --> A              
     e( 29 - 29) =     24.42404  eV     1   --> A              
     e( 30 - 30) =     27.35436  eV     1   --> A              
     e( 31 - 31) =     29.04732  eV     1   --> A              
     e( 32 - 32) =     29.39376  eV     1   --> A              
     e( 33 - 33) =     32.68363  eV     1   --> A              
     e( 34 - 34) =     32.68622  eV     1   --> A              
     e( 35 - 35) =     34.49035  eV     1   --> A              
     e( 36 - 36) =     36.04385  eV     1   --> A              
     e( 37 - 37) =     36.04765  eV     1   --> A              
     e( 38 - 38) =     36.37132  eV     1   --> A              
     e( 39 - 39) =     38.77750  eV     1   --> A              
     e( 40 - 40) =     39.08338  eV     1   --> A              
     e( 41 - 41) =     40.38825  eV     1   --> A              
     e( 42 - 42) =     42.57973  eV     1   --> A              
     e( 43 - 43) =     42.88956  eV     1   --> A              
     e( 44 - 44) =     42.92772  eV     1   --> A              
     e( 45 - 45) =     44.12899  eV     1   --> A              
     e( 46 - 46) =     45.25053  eV     1   --> A              
     e( 47 - 47) =     48.80019  eV     1   --> A              
     e( 48 - 48) =     50.75807  eV     1   --> A              
     e( 49 - 49) =     50.76035  eV     1   --> A              
     e( 50 - 50) =     53.64735  eV     1   --> A              
     e( 51 - 51) =     54.16228  eV     1   --> A              
     e( 52 - 52) =     54.35211  eV     1   --> A              
     e( 53 - 53) =     55.16205  eV     1   --> A              
     e( 54 - 54) =     57.95159  eV     1   --> A              
     e( 55 - 55) =     58.61944  eV     1   --> A              
     e( 56 - 56) =     60.52159  eV     1   --> A              
     e( 57 - 57) =     62.36928  eV     1   --> A              
[...]
     e(100 -100) =     95.89681  eV     1   --> A              

 **************************************************************************

 **************************************************************************

                    xk=(   0.00781,  -0.02591,  -0.04231  )

     Band symmetry, C_1 (1)     point group:

     e(  1 -  1) =    -90.71292  eV     1   --> A              
     e(  2 -  2) =    -88.55176  eV     1   --> A              
     e(  3 -  3) =    -51.03722  eV     1   --> A              
     e(  4 -  4) =    -51.02274  eV     1   --> A              
     e(  5 -  5) =    -51.02180  eV     1   --> A              
     e(  6 -  6) =    -48.92824  eV     1   --> A              
     e(  7 -  7) =    -48.91313  eV     1   --> A              
     e(  8 -  8) =    -48.91282  eV     1   --> A              
     e(  9 -  9) =     -5.49474  eV     1   --> A              
     e( 10 - 10) =     -4.01822  eV     1   --> A              
     e( 11 - 11) =      2.44556  eV     1   --> A              
     e( 12 - 12) =      5.65045  eV     1   --> A              
     e( 13 - 13) =      5.65796  eV     1   --> A              
     e( 14 - 14) =      8.27760  eV     1   --> A              
     e( 15 - 15) =      8.28477  eV     1   --> A              
     e( 16 - 16) =      8.42263  eV     1   --> A              
     e( 17 - 17) =      9.23517  eV     1   --> A              
     e( 18 - 18) =      9.30032  eV     1   --> A              
     e( 19 - 19) =      9.58037  eV     1   --> A              
     e( 20 - 20) =      9.60794  eV     1   --> A              
     e( 21 - 21) =      9.64457  eV     1   --> A              
     e( 22 - 22) =     10.41547  eV     1   --> A              
     e( 23 - 23) =     11.01894  eV     1   --> A              
     e( 24 - 24) =     11.02787  eV     1   --> A              
     e( 25 - 25) =     16.22313  eV     1   --> A              
     e( 26 - 26) =     16.65688  eV     1   --> A              
     e( 27 - 27) =     16.66510  eV     1   --> A              
     e( 28 - 28) =     20.14505  eV     1   --> A              
     e( 29 - 29) =     24.66513  eV     1   --> A              
     e( 30 - 30) =     28.47542  eV     1   --> A              
     e( 31 - 31) =     28.55441  eV     1   --> A              
     e( 32 - 32) =     31.97946  eV     1   --> A              
     e( 33 - 33) =     33.31068  eV     1   --> A              
     e( 34 - 34) =     33.37533  eV     1   --> A              
     e( 35 - 35) =     33.56150  eV     1   --> A              
     e( 36 - 36) =     35.82963  eV     1   --> A              
     e( 37 - 37) =     36.70461  eV     1   --> A              
     e( 38 - 38) =     36.85990  eV     1   --> A              
     e( 39 - 39) =     36.95112  eV     1   --> A              
     e( 40 - 40) =     39.97500  eV     1   --> A              
     e( 41 - 41) =     40.18744  eV     1   --> A              
     e( 42 - 42) =     40.62928  eV     1   --> A              
     e( 43 - 43) =     40.71617  eV     1   --> A              
     e( 44 - 44) =     41.49144  eV     1   --> A              
     e( 45 - 45) =     43.47800  eV     1   --> A              
     e( 46 - 46) =     43.50957  eV     1   --> A              
     e( 47 - 47) =     50.55128  eV     1   --> A              
     e( 48 - 48) =     50.80354  eV     1   --> A              
     e( 49 - 49) =     50.81514  eV     1   --> A              
     e( 50 - 50) =     51.35840  eV     1   --> A              
     e( 51 - 51) =     54.76779  eV     1   --> A              
     e( 52 - 52) =     54.82416  eV     1   --> A              
     e( 53 - 53) =     56.64140  eV     1   --> A              
     e( 54 - 54) =     57.03378  eV     1   --> A              
     e( 55 - 55) =     58.95438  eV     1   --> A              
     e( 56 - 56) =     58.98715  eV     1   --> A              
     e( 57 - 57) =     65.41528  eV     1   --> A              
     e( 58 - 58) =     65.68851  eV     1   --> A              
     e( 59 - 59) =     67.53155  eV     1   --> A              
     e( 60 - 60) =     67.83748  eV     1   --> A              
     e( 61 - 61) =     67.86795  eV     1   --> A              
     e( 62 - 62) =     67.97498  eV     1   --> A              
     e( 63 - 63) =     70.95156  eV     1   --> A              
     e( 64 - 64) =     70.97827  eV     1   --> A              
     e( 65 - 65) =     71.04703  eV     1   --> A              
     e( 66 - 66) =     71.21750  eV     1   --> A              
     e( 67 - 67) =     71.49518  eV     1   --> A              
     e( 68 - 68) =     72.38823  eV     1   --> A              
     e( 69 - 69) =     72.40543  eV     1   --> A              
     e( 70 - 70) =     72.74835  eV     1   --> A              
     e( 71 - 71) =     73.19755  eV     1   --> A              
     e( 72 - 72) =     73.65259  eV     1   --> A              
     e( 73 - 73) =     74.22221  eV     1   --> A              
     e( 74 - 74) =     77.57025  eV     1   --> A              
     e( 75 - 75) =     79.92128  eV     1   --> A              
     e( 76 - 76) =     80.03601  eV     1   --> A              
     e( 77 - 77) =     80.83529  eV     1   --> A              
     e( 78 - 78) =     82.99209  eV     1   --> A              
     e( 79 - 79) =     83.13544  eV     1   --> A              
     e( 80 - 80) =     87.86938  eV     1   --> A              
     e( 81 - 81) =     87.89104  eV     1   --> A              
     e( 82 - 82) =     87.93857  eV     1   --> A              
     e( 83 - 83) =     88.48795  eV     1   --> A              
     e( 84 - 84) =     89.72344  eV     1   --> A              
     e( 85 - 85) =     90.45029  eV     1   --> A              
     e( 86 - 86) =     90.62049  eV     1   --> A              
     e( 87 - 87) =     90.79570  eV     1   --> A              
     e( 88 - 88) =     90.84929  eV     1   --> A              
     e( 89 - 89) =     92.25238  eV     1   --> A              
     e( 90 - 90) =     92.67479  eV     1   --> A              
     e( 91 - 91) =     92.86134  eV     1   --> A              
     e( 92 - 92) =     93.00227  eV     1   --> A              
     e( 93 - 93) =     93.04429  eV     1   --> A              
     e( 94 - 94) =     93.75521  eV     1   --> A              
     e( 95 - 95) =     93.83952  eV     1   --> A              
     e( 96 - 96) =     93.85606  eV     1   --> A              
     e( 97 - 97) =     94.31807  eV     1   --> A              
     e( 98 - 98) =     95.01171  eV     1   --> A              
     e( 99 - 99) =     95.14890  eV     1   --> A              
     e(100 -100) =     95.45566  eV     1   --> A              

 **************************************************************************

 **************************************************************************

                    xk=(   0.00391,  -0.01296,  -0.02116  )

     Band symmetry, C_1 (1)     point group:

     e(  1 -  1) =    -90.71291  eV     1   --> A              
     e(  2 -  2) =    -88.55169  eV     1   --> A              
     e(  3 -  3) =    -51.03717  eV     1   --> A              
     e(  4 -  4) =    -51.02260  eV     1   --> A              
     e(  5 -  5) =    -51.02172  eV     1   --> A              
     e(  6 -  6) =    -48.92819  eV     1   --> A              
     e(  7 -  7) =    -48.91295  eV     1   --> A              
     e(  8 -  8) =    -48.91275  eV     1   --> A              
     e(  9 -  9) =     -5.49726  eV     1   --> A              
     e( 10 - 10) =     -4.01749  eV     1   --> A              
     e( 11 - 11) =      2.43270  eV     1   --> A              
     e( 12 - 12) =      5.65430  eV     1   --> A              
     e( 13 - 13) =      5.65608  eV     1   --> A              
     e( 14 - 14) =      8.29234  eV     1   --> A              
     e( 15 - 15) =      8.29471  eV     1   --> A              
     e( 16 - 16) =      8.42528  eV     1   --> A              
     e( 17 - 17) =      9.27986  eV     1   --> A              
     e( 18 - 18) =      9.29878  eV     1   --> A              
     e( 19 - 19) =      9.59717  eV     1   --> A              
     e( 20 - 20) =      9.60409  eV     1   --> A              
     e( 21 - 21) =      9.61191  eV     1   --> A              
     e( 22 - 22) =     10.41697  eV     1   --> A              
     e( 23 - 23) =     11.01924  eV     1   --> A              
     e( 24 - 24) =     11.02356  eV     1   --> A              
     e( 25 - 25) =     16.19243  eV     1   --> A              
     e( 26 - 26) =     16.66385  eV     1   --> A              
     e( 27 - 27) =     16.66653  eV     1   --> A              
     e( 28 - 28) =     20.11396  eV     1   --> A              
     e( 29 - 29) =     24.67296  eV     1   --> A              
     e( 30 - 30) =     28.52162  eV     1   --> A              
     e( 31 - 31) =     28.54164  eV     1   --> A              
     e( 32 - 32) =     32.14471  eV     1   --> A              
     e( 33 - 33) =     33.35575  eV     1   --> A              
     e( 34 - 34) =     33.37195  eV     1   --> A              
     e( 35 - 35) =     33.42549  eV     1   --> A              
     e( 36 - 36) =     35.76144  eV     1   --> A              
     e( 37 - 37) =     36.81639  eV     1   --> A              
     e( 38 - 38) =     36.85970  eV     1   --> A              
     e( 39 - 39) =     36.88169  eV     1   --> A              
     e( 40 - 40) =     40.14308  eV     1   --> A              
     e( 41 - 41) =     40.20074  eV     1   --> A              
     e( 42 - 42) =     40.59298  eV     1   --> A              
     e( 43 - 43) =     40.61044  eV     1   --> A              
     e( 44 - 44) =     41.33032  eV     1   --> A              
     e( 45 - 45) =     43.45114  eV     1   --> A              
     e( 46 - 46) =     43.45903  eV     1   --> A              
     e( 47 - 47) =     50.71565  eV     1   --> A              
     e( 48 - 48) =     50.81007  eV     1   --> A              
     e( 49 - 49) =     50.81424  eV     1   --> A              
     e( 50 - 50) =     51.17849  eV     1   --> A              
     e( 51 - 51) =     54.80832  eV     1   --> A              
     e( 52 - 52) =     54.82281  eV     1   --> A              
     e( 53 - 53) =     56.69896  eV     1   --> A              
     e( 54 - 54) =     56.94101  eV     1   --> A              
     e( 55 - 55) =     58.96393  eV     1   --> A              
     e( 56 - 56) =     58.97208  eV     1   --> A              
     e( 57 - 57) =     65.61351  eV     1   --> A              
     e( 58 - 58) =     65.68827  eV     1   --> A              
     e( 59 - 59) =     67.69351  eV     1   --> A              
     e( 60 - 60) =     67.91750  eV     1   --> A              
     e( 61 - 61) =     68.00933  eV     1   --> A              
     e( 62 - 62) =     68.04687  eV     1   --> A              
     e( 63 - 63) =     70.93700  eV     1   --> A              
     e( 64 - 64) =     70.95232  eV     1   --> A              
     e( 65 - 65) =     70.97618  eV     1   --> A              
     e( 66 - 66) =     71.03435  eV     1   --> A              
     e( 67 - 67) =     71.09465  eV     1   --> A              
     e( 68 - 68) =     72.39643  eV     1   --> A              
     e( 69 - 69) =     72.51379  eV     1   --> A              
     e( 70 - 70) =     72.71120  eV     1   --> A              
     e( 71 - 71) =     73.48366  eV     1   --> A              
     e( 72 - 72) =     73.60898  eV     1   --> A              
     e( 73 - 73) =     74.21677  eV     1   --> A              
     e( 74 - 74) =     77.22311  eV     1   --> A              
     e( 75 - 75) =     80.16246  eV     1   --> A              
     e( 76 - 76) =     80.20493  eV     1   --> A              
     e( 77 - 77) =     80.90143  eV     1   --> A              
     e( 78 - 78) =     82.74675  eV     1   --> A              
     e( 79 - 79) =     82.79235  eV     1   --> A              
     e( 80 - 80) =     87.95277  eV     1   --> A              
     e( 81 - 81) =     87.95828  eV     1   --> A              
     e( 82 - 82) =     87.96991  eV     1   --> A              
     e( 83 - 83) =     89.01977  eV     1   --> A              
     e( 84 - 84) =     89.87794  eV     1   --> A              
     e( 85 - 85) =     90.17746  eV     1   --> A              
     e( 86 - 86) =     90.88382  eV     1   --> A              
     e( 87 - 87) =     90.93430  eV     1   --> A              
     e( 88 - 88) =     90.95870  eV     1   --> A              
     e( 89 - 89) =     92.60459  eV     1   --> A              
     e( 90 - 90) =     93.16006  eV     1   --> A              
     e( 91 - 91) =     93.16038  eV     1   --> A              
     e( 92 - 92) =     93.18700  eV     1   --> A              
     e( 93 - 93) =     93.23279  eV     1   --> A              
     e( 94 - 94) =     93.65435  eV     1   --> A              
     e( 95 - 95) =     93.70339  eV     1   --> A              
     e( 96 - 96) =     93.73441  eV     1   --> A              
     e( 97 - 97) =     93.86280  eV     1   --> A              
     e( 98 - 98) =     94.99264  eV     1   --> A              
     e( 99 - 99) =     95.05525  eV     1   --> A              
     e(100 -100) =     95.11587  eV     1   --> A              

 **************************************************************************

 **************************************************************************

                    xk=(   0.00000,   0.00000,   0.00000  )

     point group C_i (-1)   
     there are  2 classes
     the character table:

       E     i    
A_g    1.00  1.00
A_u    1.00 -1.00

     the symmetry operations in each class and the name of the first element:

     E        1
                                                                 
     i        2
                                                                 

     Band symmetry, C_i (-1)    point group:

     e(  1 -  1) =    -90.71291  eV     1   --> A_g            
     e(  2 -  2) =    -88.55167  eV     1   --> A_g            
     e(  3 -  3) =    -51.03715  eV     1   --> A_u            
     e(  4 -  4) =    -51.02255  eV     1   --> A_u            
     e(  5 -  5) =    -51.02169  eV     1   --> A_u            
     e(  6 -  6) =    -48.92816  eV     1   --> A_u            
     e(  7 -  7) =    -48.91288  eV     1   --> A_u            
     e(  8 -  8) =    -48.91272  eV     1   --> A_u            
     e(  9 -  9) =     -5.49809  eV     1   --> A_g            
     e( 10 - 10) =     -4.01724  eV     1   --> A_u            
     e( 11 - 11) =      2.42841  eV     1   --> A_g            
     e( 12 - 12) =      5.65530  eV     1   --> A_g            
     e( 13 - 13) =      5.65573  eV     1   --> A_g            
     e( 14 - 14) =      8.29692  eV     1   --> A_g            
     e( 15 - 15) =      8.29818  eV     1   --> A_g            
     e( 16 - 16) =      8.42631  eV     1   --> A_g            
     e( 17 - 17) =      9.29599  eV     1   --> A_g            
     e( 18 - 18) =      9.29910  eV     1   --> A_g            
     e( 19 - 19) =      9.59876  eV     1   --> A_u            
     e( 20 - 21) =      9.60296  eV     2   -->   2 A_u            
     e( 22 - 22) =     10.41746  eV     1   --> A_g            
     e( 23 - 23) =     11.01931  eV     1   --> A_g            
     e( 24 - 24) =     11.02208  eV     1   --> A_g            
     e( 25 - 25) =     16.18210  eV     1   --> A_g            
     e( 26 - 26) =     16.66612  eV     1   --> A_g            
     e( 27 - 27) =     16.66716  eV     1   --> A_g            
     e( 28 - 28) =     20.10352  eV     1   --> A_u            
     e( 29 - 29) =     24.67557  eV     1   --> A_g            
     e( 30 - 30) =     28.53722  eV     1   --> A_u            
     e( 31 - 31) =     28.53742  eV     1   --> A_u            
     e( 32 - 32) =     32.20916  eV     1   --> A_u            
     e( 33 - 34) =     33.37073  eV     2   -->   2 A_g            
     e( 35 - 35) =     33.37096  eV     1   --> A_g            
     e( 36 - 36) =     35.73838  eV     1   --> A_g            
     e( 37 - 37) =     36.85270  eV     1   --> A_u            
     e( 38 - 38) =     36.86042  eV     1   --> A_u            
     e( 39 - 39) =     36.86061  eV     1   --> A_u            
     e( 40 - 40) =     40.20429  eV     1   --> A_g            
     e( 41 - 41) =     40.20471  eV     1   --> A_g            
     e( 42 - 42) =     40.58183  eV     1   --> A_g            
     e( 43 - 43) =     40.58231  eV     1   --> A_g            
     e( 44 - 44) =     41.26201  eV     1   --> A_u            
     e( 45 - 46) =     43.44208  eV     2   -->   2 A_u            
     e( 47 - 48) =     50.81181  eV     2   -->   2 A_u            
     e( 49 - 49) =     50.81443  eV     1   --> A_u            
     e( 50 - 50) =     51.07705  eV     1   --> A_g            
     e( 51 - 51) =     54.82208  eV     1   --> A_g            
     e( 52 - 52) =     54.82238  eV     1   --> A_g            
     e( 53 - 53) =     56.73277  eV     1   --> A_u            
     e( 54 - 54) =     56.89523  eV     1   --> A_g            
     e( 55 - 55) =     58.96701  eV     1   --> A_u            
     e( 56 - 56) =     58.96712  eV     1   --> A_u            
     e( 57 - 58) =     65.68822  eV     2   -->   2 A_g            
     e( 59 - 59) =     67.62676  eV     1   --> A_u            
     e( 60 - 60) =     68.06997  eV     1   --> A_u            
     e( 61 - 62) =     68.07210  eV     2   -->   2 A_u            
     e( 63 - 64) =     70.90425  eV     2   -->   2 A_g            
     e( 65 - 65) =     70.97231  eV     1   --> A_g            
     e( 66 - 67) =     70.97552  eV     2   -->   2 A_g            
     e( 68 - 68) =     72.39526  eV     1   --> A_g            
     e( 69 - 69) =     72.55407  eV     1   --> A_u            
     e( 70 - 70) =     72.69741  eV     1   --> A_u            
     e( 71 - 72) =     73.59432  eV     2   -->   2 A_u            
     e( 73 - 73) =     74.21493  eV     1   --> A_g            
     e( 74 - 74) =     77.09367  eV     1   --> A_g            
     e( 75 - 76) =     80.25355  eV     2   -->   2 A_g            
     e( 77 - 77) =     80.95502  eV     1   --> A_g            
     e( 78 - 79) =     82.65396  eV     2   -->   2 A_u            
     e( 80 - 80) =     87.97969  eV     1   --> A_u            
     e( 81 - 82) =     87.98032  eV     2   -->   2 A_u            
     e( 83 - 83) =     89.33489  eV     1   --> A_u            
     e( 84 - 84) =     89.92656  eV     1   --> A_g            
     e( 85 - 85) =     89.92666  eV     1   --> A_g            
     e( 86 - 87) =     90.97396  eV     2   -->   2 A_u            
     e( 88 - 88) =     91.03231  eV     1   --> A_u            
     e( 89 - 89) =     92.82612  eV     1   --> A_g            
     e( 90 - 90) =     93.19966  eV     1   --> A_u            
     e( 91 - 91) =     93.36835  eV     1   --> A_u            
     e( 92 - 92) =     93.36848  eV     1   --> A_u            
     e( 93 - 93) =     93.37748  eV     1   --> A_u            
     e( 94 - 94) =     93.61369  eV     1   --> A_u            
     e( 95 - 95) =     93.61381  eV     1   --> A_u            
     e( 96 - 97) =     93.63523  eV     2   -->   2 A_g            
     e( 98 - 99) =     94.97803  eV     2   -->   2 A_g            
     e(100 -100) =     94.97849  eV     1   --> A_g            

 **************************************************************************
 
     BANDS        :    41.56s CPU        51.19s WALL

 
   This run was terminated on:  19:54:55   3Jan2020            

=------------------------------------------------------------------------------=
   JOB DONE.
=------------------------------------------------------------------------------=
IPL WARN> ipl_option_omp: wrong omp option 
