
     Program BANDS v.6.1 (svn rev. 13369) starts on  3Jan2020 at 21:35:59 

     This program is part of the open-source Quantum ESPRESSO suite
     for quantum simulation of materials; please cite
         "P. Giannozzi et al., J. Phys.:Condens. Matter 21 395502 (2009);
          URL http://www.quantum-espresso.org", 
     in publications or presentations arising from this work. More details at
     http://www.quantum-espresso.org/quote

     Parallel version (MPI), running on    40 processors
     R & G space division:  proc/nbgrp/npool/nimage =      40

     Reading data from directory:
     ./outdir/NiO.save

   Info: using nr1, nr2, nr3 values from input

   Info: using nr1, nr2, nr3 values from input

     IMPORTANT: XC functional enforced from input :
     Exchange-correlation      =  SLA  PW   PBX  PBC ( 1  4  3  4 0 0)
     Any further DFT definition will be discarded
     Please, verify this is what you really want

               file Ni.pbe-spn-kjpaw_psl.1.0.0.UPF: wavefunction(s)  3P 3D renormalized
               file Ni.pbe-spn-kjpaw_psl.1.0.0.UPF: wavefunction(s)  3P 3D renormalized
               file O.pbe-n-kjpaw_psl.1.0.0.UPF: wavefunction(s)  2S 2P renormalized
 
     Parallelization info
     --------------------
     sticks:   dense  smooth     PW     G-vecs:    dense   smooth      PW
     Min          82      82     22                 2333     2333     341
     Max          83      83     23                 2335     2335     344
     Sum        3287    3287    911                93351    93351   13705
 
     Generating pointlists ...
     new r_m :   0.1684 (alat units)  1.6253 (a.u.) for type    1
     new r_m :   0.1684 (alat units)  1.6253 (a.u.) for type    2
     new r_m :   0.1684 (alat units)  1.6253 (a.u.) for type    3
     high-symmetry point:  0.0000 0.0000 0.0000   x coordinate   0.0000
     high-symmetry point:  0.0000-0.9045-0.5539   x coordinate   1.0607
     high-symmetry point: -0.1875-0.6219-1.0155   x coordinate   1.6335
     high-symmetry point: -0.3438-0.1036-1.0155   x coordinate   2.1747
     high-symmetry point:  0.0000 0.0000 0.0000   x coordinate   3.2519
     high-symmetry point: -0.5000-0.1508-0.0923   x coordinate   3.7822
     high-symmetry point: -0.1875-0.9045-0.5539   x coordinate   4.7197
     high-symmetry point: -0.1875-0.6219-1.0155   x coordinate   5.2609
     high-symmetry point: -0.5000-0.1508-0.0923   x coordinate   6.3435
     high-symmetry point: -0.3438-0.1036-1.0155   x coordinate   7.2810
     high-symmetry point: -0.1875-0.9045-0.5539   x coordinate   8.2185
     high-symmetry point:  0.0000-0.9045-0.5539   x coordinate   8.4060
     high-symmetry point:  0.0000 0.0000 0.0000   x coordinate   9.4666
     high-symmetry point:  0.0000 0.0000-1.0155   x coordinate  10.4821
     high-symmetry point:  0.0000-0.6219-1.0155   x coordinate  11.1040
     high-symmetry point:  0.1875-0.6219-1.0155   x coordinate  11.2915
     high-symmetry point:  0.0000 0.0000 0.0000   x coordinate  12.4970

     Plottable bands (eV) written to file NiO.bands.dat.gnu
     Bands written to file NiO.bands.dat

 **************************************************************************

                    xk=(   0.00000,   0.00000,   0.00000  )

     point group C_i (-1)   
     there are  2 classes
     the character table:

       E     i    
A_g    1.00  1.00
A_u    1.00 -1.00

     the symmetry operations in each class and the name of the first element:

     E        1
                                                                 
     i        2
                                                                 

     Band symmetry, C_i (-1)    point group:

     e(  1 -  1) =    -90.85019  eV     1   --> A_g            
     e(  2 -  2) =    -88.64850  eV     1   --> A_g            
     e(  3 -  3) =    -51.16191  eV     1   --> A_u            
     e(  4 -  4) =    -51.14745  eV     1   --> A_u            
     e(  5 -  5) =    -51.14633  eV     1   --> A_u            
     e(  6 -  6) =    -49.01376  eV     1   --> A_u            
     e(  7 -  7) =    -48.99831  eV     1   --> A_u            
     e(  8 -  8) =    -48.99813  eV     1   --> A_u            
     e(  9 -  9) =     -5.43955  eV     1   --> A_g            
     e( 10 - 10) =     -3.94800  eV     1   --> A_u            
     e( 11 - 11) =      1.80452  eV     1   --> A_g            
     e( 12 - 12) =      5.09634  eV     1   --> A_g            
     e( 13 - 13) =      5.09691  eV     1   --> A_g            
     e( 14 - 14) =      7.70278  eV     1   --> A_g            
     e( 15 - 15) =      7.70434  eV     1   --> A_g            
     e( 16 - 16) =      7.83921  eV     1   --> A_g            
     e( 17 - 17) =      8.74299  eV     1   --> A_g            
     e( 18 - 18) =      8.74662  eV     1   --> A_g            
     e( 19 - 19) =      9.28430  eV     1   --> A_u            
     e( 20 - 21) =      9.28936  eV     2   -->   2 A_u            
     e( 22 - 22) =      9.92099  eV     1   --> A_g            
     e( 23 - 23) =     10.70761  eV     1   --> A_g            
     e( 24 - 24) =     10.71088  eV     1   --> A_g            
     e( 25 - 25) =     16.19736  eV     1   --> A_g            
     e( 26 - 26) =     16.92223  eV     1   --> A_g            
     e( 27 - 27) =     16.92333  eV     1   --> A_g            
     e( 28 - 28) =     20.10862  eV     1   --> A_u            
     e( 29 - 29) =     24.68413  eV     1   --> A_g            
     e( 30 - 30) =     28.52616  eV     1   --> A_u            
     e( 31 - 31) =     28.52642  eV     1   --> A_u            
     e( 32 - 32) =     32.20892  eV     1   --> A_u            
     e( 33 - 33) =     33.35517  eV     1   --> A_g            
     e( 34 - 34) =     33.35540  eV     1   --> A_g            
     e( 35 - 35) =     33.35557  eV     1   --> A_g            
     e( 36 - 36) =     35.71697  eV     1   --> A_g            
     e( 37 - 37) =     36.82978  eV     1   --> A_u            
     e( 38 - 38) =     36.83796  eV     1   --> A_u            
     e( 39 - 39) =     36.83820  eV     1   --> A_u            
     e( 40 - 40) =     40.19504  eV     1   --> A_g            
     e( 41 - 41) =     40.19560  eV     1   --> A_g            
     e( 42 - 42) =     40.57599  eV     1   --> A_g            
     e( 43 - 43) =     40.57657  eV     1   --> A_g            
     e( 44 - 44) =     41.27101  eV     1   --> A_u            
     e( 45 - 46) =     43.44826  eV     2   -->   2 A_u            
     e( 47 - 48) =     50.83875  eV     2   -->   2 A_u            
     e( 49 - 49) =     50.84103  eV     1   --> A_u            
     e( 50 - 50) =     51.05356  eV     1   --> A_g            
     e( 51 - 51) =     54.81608  eV     1   --> A_g            
     e( 52 - 52) =     54.81645  eV     1   --> A_g            
     e( 53 - 53) =     56.73995  eV     1   --> A_u            
     e( 54 - 54) =     56.89605  eV     1   --> A_g            
     e( 55 - 55) =     58.96072  eV     1   --> A_u            
     e( 56 - 56) =     58.96085  eV     1   --> A_u            
     e( 57 - 58) =     65.69410  eV     2   -->   2 A_g            
     e( 59 - 59) =     67.60532  eV     1   --> A_u            
     e( 60 - 60) =     68.06007  eV     1   --> A_u            
     e( 61 - 62) =     68.06259  eV     2   -->   2 A_u            
     e( 63 - 64) =     70.91167  eV     2   -->   2 A_g            
     e( 65 - 65) =     70.97735  eV     1   --> A_g            
     e( 66 - 67) =     70.98111  eV     2   -->   2 A_g            
     e( 68 - 68) =     72.36750  eV     1   --> A_g            
     e( 69 - 69) =     72.53305  eV     1   --> A_u            
     e( 70 - 70) =     72.71460  eV     1   --> A_u            
     e( 71 - 72) =     73.61177  eV     2   -->   2 A_u            
     e( 73 - 73) =     74.23530  eV     1   --> A_g            
     e( 74 - 74) =     77.10471  eV     1   --> A_g            
     e( 75 - 76) =     80.23745  eV     2   -->   2 A_g            
     e( 77 - 77) =     80.97750  eV     1   --> A_g            
     e( 78 - 79) =     82.65084  eV     2   -->   2 A_u            
     e( 80 - 80) =     87.97666  eV     1   --> A_u            
     e( 81 - 82) =     87.97725  eV     2   -->   2 A_u            
     e( 83 - 83) =     89.31616  eV     1   --> A_u            
     e( 84 - 84) =     89.92250  eV     1   --> A_g            
     e( 85 - 85) =     89.92262  eV     1   --> A_g            
     e( 86 - 87) =     90.97008  eV     2   -->   2 A_u            
     e( 88 - 88) =     91.03205  eV     1   --> A_u            
     e( 89 - 89) =     92.83646  eV     1   --> A_g            
     e( 90 - 90) =     93.16878  eV     1   --> A_u            
     e( 91 - 91) =     93.36755  eV     1   --> A_u            
     e( 92 - 92) =     93.36772  eV     1   --> A_u            
     e( 93 - 93) =     93.37687  eV     1   --> A_u            
     e( 94 - 94) =     93.62010  eV     1   --> A_u            
     e( 95 - 95) =     93.62026  eV     1   --> A_u            
     e( 96 - 97) =     93.63483  eV     2   -->   2 A_g            
     e( 98 - 99) =     94.98622  eV     2   -->   2 A_g            
     e(100 -100) =     94.98658  eV     1   --> A_g            

 **************************************************************************

 **************************************************************************

                    xk=(   0.00000,  -0.02154,  -0.01319  )

     point group C_1 (1)    
     there are  1 classes
     the character table:

       E    
A      1.00

     the symmetry operations in each class and the name of the first element:

     E        1
                                                                 

     Band symmetry, C_1 (1)     point group:

     e(  1 -  1) =    -90.85020  eV     1   --> A              
     e(  2 -  2) =    -88.64853  eV     1   --> A              
     e(  3 -  3) =    -51.16194  eV     1   --> A              
     e(  4 -  4) =    -51.14748  eV     1   --> A              
     e(  5 -  5) =    -51.14638  eV     1   --> A              
     e(  6 -  6) =    -49.01379  eV     1   --> A              
     e(  7 -  7) =    -48.99836  eV     1   --> A              
     e(  8 -  8) =    -48.99818  eV     1   --> A              
     e(  9 -  9) =     -5.43887  eV     1   --> A              
     e( 10 - 10) =     -3.94877  eV     1   --> A              
     e( 11 - 11) =      1.80956  eV     1   --> A              
     e( 12 - 12) =      5.09543  eV     1   --> A              
     e( 13 - 13) =      5.09742  eV     1   --> A              
     e( 14 - 14) =      7.69928  eV     1   --> A              
     e( 15 - 15) =      7.70163  eV     1   --> A              
     e( 16 - 16) =      7.83793  eV     1   --> A              
     e( 17 - 17) =      8.73553  eV     1   --> A              
     e( 18 - 18) =      8.74387  eV     1   --> A              
     e( 19 - 19) =      9.28506  eV     1   --> A              
     e( 20 - 20) =      9.28929  eV     1   --> A              
     e( 21 - 21) =      9.28964  eV     1   --> A              
     e( 22 - 22) =      9.92047  eV     1   --> A              
     e( 23 - 23) =     10.70709  eV     1   --> A              
     e( 24 - 24) =     10.71197  eV     1   --> A              
     e( 25 - 25) =     16.20770  eV     1   --> A              
     e( 26 - 26) =     16.92106  eV     1   --> A              
     e( 27 - 27) =     16.92206  eV     1   --> A              
     e( 28 - 28) =     20.11813  eV     1   --> A              
     e( 29 - 29) =     24.68189  eV     1   --> A              
     e( 30 - 30) =     28.51240  eV     1   --> A              
     e( 31 - 31) =     28.53083  eV     1   --> A              
     e( 32 - 32) =     32.14252  eV     1   --> A              
     e( 33 - 33) =     33.35128  eV     1   --> A              
     e( 34 - 34) =     33.35155  eV     1   --> A              
     e( 35 - 35) =     33.40565  eV     1   --> A              
     e( 36 - 36) =     35.73773  eV     1   --> A              
     e( 37 - 37) =     36.81236  eV     1   --> A              
     e( 38 - 38) =     36.81973  eV     1   --> A              
     e( 39 - 39) =     36.85779  eV     1   --> A              
     e( 40 - 40) =     40.12930  eV     1   --> A              
     e( 41 - 41) =     40.20088  eV     1   --> A              
     e( 42 - 42) =     40.59037  eV     1   --> A              
     e( 43 - 43) =     40.60107  eV     1   --> A              
     e( 44 - 44) =     41.33362  eV     1   --> A              
     e( 45 - 45) =     43.45442  eV     1   --> A              
     e( 46 - 46) =     43.47078  eV     1   --> A              
     e( 47 - 47) =     50.73077  eV     1   --> A              
     e( 48 - 48) =     50.83832  eV     1   --> A              
     e( 49 - 49) =     50.84030  eV     1   --> A              
     e( 50 - 50) =     51.16604  eV     1   --> A              
     e( 51 - 51) =     54.80825  eV     1   --> A              
     e( 52 - 52) =     54.80999  eV     1   --> A              
     e( 53 - 53) =     56.59667  eV     1   --> A              
     e( 54 - 54) =     57.05060  eV     1   --> A              
     e( 55 - 55) =     58.95049  eV     1   --> A              
     e( 56 - 56) =     58.96824  eV     1   --> A              
     e( 57 - 57) =     65.62104  eV     1   --> A              
     e( 58 - 58) =     65.70654  eV     1   --> A              
     e( 59 - 59) =     67.66026  eV     1   --> A              
     e( 60 - 60) =     67.93809  eV     1   --> A              
     e( 61 - 61) =     67.94031  eV     1   --> A              
     e( 62 - 62) =     68.06576  eV     1   --> A              
     e( 63 - 63) =     70.94312  eV     1   --> A              
     e( 64 - 64) =     70.94490  eV     1   --> A              
     e( 65 - 65) =     70.98103  eV     1   --> A              
     e( 66 - 66) =     71.07797  eV     1   --> A              
     e( 67 - 67) =     71.07951  eV     1   --> A              
     e( 68 - 68) =     72.37489  eV     1   --> A              
     e( 69 - 69) =     72.49424  eV     1   --> A              
     e( 70 - 70) =     72.72861  eV     1   --> A              
     e( 71 - 71) =     73.51055  eV     1   --> A              
     e( 72 - 72) =     73.62372  eV     1   --> A              
     e( 73 - 73) =     74.23718  eV     1   --> A              
     e( 74 - 74) =     77.22612  eV     1   --> A              
     e( 75 - 75) =     80.15346  eV     1   --> A              
     e( 76 - 76) =     80.19713  eV     1   --> A              
     e( 77 - 77) =     80.92546  eV     1   --> A              
     e( 78 - 78) =     82.73952  eV     1   --> A              
     e( 79 - 79) =     82.77645  eV     1   --> A              
     e( 80 - 80) =     87.95597  eV     1   --> A              
     e( 81 - 81) =     87.95730  eV     1   --> A              
     e( 82 - 82) =     87.95787  eV     1   --> A              
     e( 83 - 83) =     89.02309  eV     1   --> A              
     e( 84 - 84) =     89.88522  eV     1   --> A              
     e( 85 - 85) =     90.14807  eV     1   --> A              
     e( 86 - 86) =     90.88544  eV     1   --> A              
     e( 87 - 87) =     90.92240  eV     1   --> A              
     e( 88 - 88) =     90.95995  eV     1   --> A              
     e( 89 - 89) =     92.62973  eV     1   --> A              
     e( 90 - 90) =     93.12926  eV     1   --> A              
     e( 91 - 91) =     93.17904  eV     1   --> A              
     e( 92 - 92) =     93.18011  eV     1   --> A              
     e( 93 - 93) =     93.21366  eV     1   --> A              
     e( 94 - 94) =     93.64696  eV     1   --> A              
     e( 95 - 95) =     93.71027  eV     1   --> A              
     e( 96 - 96) =     93.72078  eV     1   --> A              
     e( 97 - 97) =     93.85538  eV     1   --> A              
     e( 98 - 98) =     95.02017  eV     1   --> A              
     e( 99 - 99) =     95.09557  eV     1   --> A              
     e(100 -100) =     95.09572  eV     1   --> A              

 **************************************************************************

 **************************************************************************

                    xk=(   0.00000,  -0.04307,  -0.02638  )

     Band symmetry, C_1 (1)     point group:

     e(  1 -  1) =    -90.85021  eV     1   --> A              
     e(  2 -  2) =    -88.64863  eV     1   --> A              
     e(  3 -  3) =    -51.16199  eV     1   --> A              
     e(  4 -  4) =    -51.14757  eV     1   --> A              
     e(  5 -  5) =    -51.14652  eV     1   --> A              
     e(  6 -  6) =    -49.01385  eV     1   --> A              
     e(  7 -  7) =    -48.99851  eV     1   --> A              
     e(  8 -  8) =    -48.99827  eV     1   --> A              
     e(  9 -  9) =     -5.43682  eV     1   --> A              
     e( 10 - 10) =     -3.95105  eV     1   --> A              
     e( 11 - 11) =      1.82464  eV     1   --> A              
     e( 12 - 12) =      5.09240  eV     1   --> A              
     e( 13 - 13) =      5.09929  eV     1   --> A              
     e( 14 - 14) =      7.68538  eV     1   --> A              
     e( 15 - 15) =      7.69633  eV     1   --> A              
     e( 16 - 16) =      7.83447  eV     1   --> A              
     e( 17 - 17) =      8.70699  eV     1   --> A              
     e( 18 - 18) =      8.74289  eV     1   --> A              
     e( 19 - 19) =      9.27264  eV     1   --> A              
     e( 20 - 20) =      9.29021  eV     1   --> A              
     e( 21 - 21) =      9.30321  eV     1   --> A              
     e( 22 - 22) =      9.91893  eV     1   --> A              
     e( 23 - 23) =     10.70488  eV     1   --> A              
     e( 24 - 24) =     10.71589  eV     1   --> A              
     e( 25 - 25) =     16.23850  eV     1   --> A              
     e( 26 - 26) =     16.91674  eV     1   --> A              
     e( 27 - 27) =     16.91921  eV     1   --> A              
     e( 28 - 28) =     20.14648  eV     1   --> A              
     e( 29 - 29) =     24.67516  eV     1   --> A              
     e( 30 - 30) =     28.47121  eV     1   --> A              
     e( 31 - 31) =     28.54457  eV     1   --> A              
     e( 32 - 32) =     31.97121  eV     1   --> A              
     e( 33 - 33) =     33.33929  eV     1   --> A              
     e( 34 - 34) =     33.33957  eV     1   --> A              
     e( 35 - 35) =     33.52820  eV     1   --> A              
     e( 36 - 36) =     35.79900  eV     1   --> A              
     e( 37 - 37) =     36.76038  eV     1   --> A              
     e( 38 - 38) =     36.76731  eV     1   --> A              
     e( 39 - 39) =     36.91897  eV     1   --> A              
     e( 40 - 40) =     39.94901  eV     1   --> A              
     e( 41 - 41) =     40.21381  eV     1   --> A              
     e( 42 - 42) =     40.65801  eV     1   --> A              
     e( 43 - 43) =     40.67701  eV     1   --> A              
     e( 44 - 44) =     41.47681  eV     1   --> A              
     e( 45 - 45) =     43.47267  eV     1   --> A              
     e( 46 - 46) =     43.53778  eV     1   --> A              
     e( 47 - 47) =     50.55941  eV     1   --> A              
     e( 48 - 48) =     50.83685  eV     1   --> A              
     e( 49 - 49) =     50.83882  eV     1   --> A              
     e( 50 - 50) =     51.35015  eV     1   --> A              
     e( 51 - 51) =     54.78453  eV     1   --> A              
     e( 52 - 52) =     54.79140  eV     1   --> A              
     e( 53 - 53) =     56.40898  eV     1   --> A              
     e( 54 - 54) =     57.27084  eV     1   --> A              
     e( 55 - 55) =     58.92004  eV     1   --> A              
     e( 56 - 56) =     58.99136  eV     1   --> A              
     e( 57 - 57) =     65.42456  eV     1   --> A              
     e( 58 - 58) =     65.74259  eV     1   --> A              
     e( 59 - 59) =     67.62140  eV     1   --> A              
     e( 60 - 60) =     67.62315  eV     1   --> A              
     e( 61 - 61) =     67.80273  eV     1   --> A              
     e( 62 - 62) =     68.07606  eV     1   --> A              
     e( 63 - 63) =     70.95551  eV     1   --> A              
     e( 64 - 64) =     70.95774  eV     1   --> A              
     e( 65 - 65) =     70.98183  eV     1   --> A              
     e( 66 - 66) =     71.41015  eV     1   --> A              
     e( 67 - 67) =     71.41103  eV     1   --> A              
     e( 68 - 68) =     72.37519  eV     1   --> A              
     e( 69 - 69) =     72.39868  eV     1   --> A              
     e( 70 - 70) =     72.76792  eV     1   --> A              
     e( 71 - 71) =     73.24905  eV     1   --> A              
     e( 72 - 72) =     73.65993  eV     1   --> A              
     e( 73 - 73) =     74.24271  eV     1   --> A              
     e( 74 - 74) =     77.55210  eV     1   --> A              
     e( 75 - 75) =     79.90393  eV     1   --> A              
     e( 76 - 76) =     80.09489  eV     1   --> A              
     e( 77 - 77) =     80.83655  eV     1   --> A              
     e( 78 - 78) =     82.98637  eV     1   --> A              
     e( 79 - 79) =     83.08342  eV     1   --> A              
     e( 80 - 80) =     87.89049  eV     1   --> A              
     e( 81 - 81) =     87.89700  eV     1   --> A              
     e( 82 - 82) =     87.89789  eV     1   --> A              
     e( 83 - 83) =     88.50842  eV     1   --> A              
     e( 84 - 84) =     89.77824  eV     1   --> A              
     e( 85 - 85) =     90.39111  eV     1   --> A              
     e( 86 - 86) =     90.64911  eV     1   --> A              
     e( 87 - 87) =     90.78469  eV     1   --> A              
     e( 88 - 88) =     90.81812  eV     1   --> A              
     e( 89 - 89) =     92.30567  eV     1   --> A              
     e( 90 - 90) =     92.81702  eV     1   --> A              
     e( 91 - 91) =     92.81864  eV     1   --> A              
     e( 92 - 92) =     92.83453  eV     1   --> A              
     e( 93 - 93) =     93.01465  eV     1   --> A              
     e( 94 - 94) =     93.73219  eV     1   --> A              
     e( 95 - 95) =     93.78787  eV     1   --> A              
     e( 96 - 96) =     93.82885  eV     1   --> A              
     e( 97 - 97) =     94.29652  eV     1   --> A              
     e( 98 - 98) =     95.11442  eV     1   --> A              
     e( 99 - 99) =     95.35058  eV     1   --> A              
     e(100 -100) =     95.35129  eV     1   --> A              

 **************************************************************************

 **************************************************************************

                    xk=(   0.00000,  -0.06461,  -0.03957  )

     Band symmetry, C_1 (1)     point group:

     e(  1 -  1) =    -90.85024  eV     1   --> A              
     e(  2 -  2) =    -88.64879  eV     1   --> A              
     e(  3 -  3) =    -51.16209  eV     1   --> A              
     e(  4 -  4) =    -51.14772  eV     1   --> A              
     e(  5 -  5) =    -51.14673  eV     1   --> A              
     e(  6 -  6) =    -49.01394  eV     1   --> A              
     e(  7 -  7) =    -48.99880  eV     1   --> A              
     e(  8 -  8) =    -48.99838  eV     1   --> A              
     e(  9 -  9) =     -5.43336  eV     1   --> A              
     e( 10 - 10) =     -3.95482  eV     1   --> A              
     e( 11 - 11) =      1.84966  eV     1   --> A              
     e( 12 - 12) =      5.08736  eV     1   --> A              
     e( 13 - 13) =      5.10242  eV     1   --> A              
     e( 14 - 14) =      7.66032  eV     1   --> A              
     e( 15 - 15) =      7.68783  eV     1   --> A              
     e( 16 - 16) =      7.82970  eV     1   --> A              
     e( 17 - 17) =      8.66202  eV     1   --> A              
     e( 18 - 18) =      8.74172  eV     1   --> A              
     e( 19 - 19) =      9.25313  eV     1   --> A              
     e( 20 - 20) =      9.29116  eV     1   --> A              
     e( 21 - 21) =      9.32366  eV     1   --> A              
     e( 22 - 22) =      9.91633  eV     1   --> A              
     e( 23 - 23) =     10.70104  eV     1   --> A              
     e( 24 - 24) =     10.72258  eV     1   --> A              
     e( 25 - 25) =     16.28907  eV     1   --> A              
     e( 26 - 26) =     16.90946  eV     1   --> A              
     e( 27 - 27) =     16.91500  eV     1   --> A              
     e( 28 - 28) =     20.19308  eV     1   --> A              
     e( 29 - 29) =     24.66397  eV     1   --> A              
     e( 30 - 30) =     28.40456  eV     1   --> A              
     e( 31 - 31) =     28.56735  eV     1   --> A              
     e( 32 - 32) =     31.73940  eV     1   --> A              
     e( 33 - 33) =     33.31847  eV     1   --> A              
     e( 34 - 34) =     33.31880  eV     1   --> A              
     e( 35 - 35) =     33.67886  eV     1   --> A              
     e( 36 - 36) =     35.89768  eV     1   --> A              
     e( 37 - 37) =     36.68096  eV     1   --> A              
     e( 38 - 38) =     36.68732  eV     1   --> A              
     e( 39 - 39) =     37.02102  eV     1   --> A              
     e( 40 - 40) =     39.70320  eV     1   --> A              
     e( 41 - 41) =     40.22863  eV     1   --> A              
     e( 42 - 42) =     40.78647  eV     1   --> A              
     e( 43 - 43) =     40.80382  eV     1   --> A              
     e( 44 - 44) =     41.64161  eV     1   --> A              
     e( 45 - 45) =     43.50293  eV     1   --> A              
     e( 46 - 46) =     43.64740  eV     1   --> A              
     e( 47 - 47) =     50.38029  eV     1   --> A              
     e( 48 - 48) =     50.83437  eV     1   --> A              
     e( 49 - 49) =     50.83635  eV     1   --> A              
     e( 50 - 50) =     51.55065  eV     1   --> A              
     e( 51 - 51) =     54.74667  eV     1   --> A              
     e( 52 - 52) =     54.76069  eV     1   --> A              
     e( 53 - 53) =     56.23071  eV     1   --> A              
     e( 54 - 54) =     57.49895  eV     1   --> A              
     e( 55 - 55) =     58.87035  eV     1   --> A              
     e( 56 - 56) =     59.03282  eV     1   --> A              
     e( 57 - 57) =     65.14727  eV     1   --> A              
     e( 58 - 58) =     65.79849  eV     1   --> A              
     e( 59 - 59) =     67.19496  eV     1   --> A              
     e( 60 - 60) =     67.19642  eV     1   --> A              
     e( 61 - 61) =     67.98990  eV     1   --> A              
     e( 62 - 62) =     68.09324  eV     1   --> A              
     e( 63 - 63) =     70.96716  eV     1   --> A              
     e( 64 - 64) =     70.96918  eV     1   --> A              
     e( 65 - 65) =     70.98280  eV     1   --> A              
     e( 66 - 66) =     71.86939  eV     1   --> A              
     e( 67 - 67) =     71.87045  eV     1   --> A              
     e( 68 - 68) =     72.16987  eV     1   --> A              
     e( 69 - 69) =     72.44246  eV     1   --> A              
     e( 70 - 70) =     72.82591  eV     1   --> A              
     e( 71 - 71) =     72.91205  eV     1   --> A              
     e( 72 - 72) =     73.72195  eV     1   --> A              
     e( 73 - 73) =     74.25161  eV     1   --> A              
     e( 74 - 74) =     78.00925  eV     1   --> A              
     e( 75 - 75) =     79.53183  eV     1   --> A              
     e( 76 - 76) =     79.96906  eV     1   --> A              
     e( 77 - 77) =     80.76846  eV     1   --> A              
     e( 78 - 78) =     83.35260  eV     1   --> A              
     e( 79 - 79) =     83.47055  eV     1   --> A              
     e( 80 - 80) =     87.77320  eV     1   --> A              
     e( 81 - 81) =     87.78868  eV     1   --> A              
     e( 82 - 82) =     87.79156  eV     1   --> A              
     e( 83 - 83) =     87.93511  eV     1   --> A              
     e( 84 - 84) =     89.61335  eV     1   --> A              
     e( 85 - 85) =     90.22376  eV     1   --> A              
     e( 86 - 86) =     90.30370  eV     1   --> A              
     e( 87 - 87) =     90.63035  eV     1   --> A              
     e( 88 - 88) =     90.79928  eV     1   --> A              
     e( 89 - 89) =     92.09898  eV     1   --> A              
     e( 90 - 90) =     92.35552  eV     1   --> A              
     e( 91 - 91) =     92.40813  eV     1   --> A              
     e( 92 - 92) =     92.41058  eV     1   --> A              
     e( 93 - 93) =     92.83507  eV     1   --> A              
     e( 94 - 94) =     93.81692  eV     1   --> A              
     e( 95 - 95) =     93.84393  eV     1   --> A              
     e( 96 - 96) =     93.98641  eV     1   --> A              
     e( 97 - 97) =     94.77331  eV     1   --> A              
     e( 98 - 98) =     95.25203  eV     1   --> A              
     e( 99 - 99) =     95.67443  eV     1   --> A              
     e(100 -100) =     95.67655  eV     1   --> A              

 **************************************************************************

 **************************************************************************

                    xk=(   0.00000,  -0.08615,  -0.05275  )

     Band symmetry, C_1 (1)     point group:

     e(  1 -  1) =    -90.85028  eV     1   --> A              
     e(  2 -  2) =    -88.64901  eV     1   --> A              
     e(  3 -  3) =    -51.16222  eV     1   --> A              
     e(  4 -  4) =    -51.14796  eV     1   --> A              
     e(  5 -  5) =    -51.14700  eV     1   --> A              
     e(  6 -  6) =    -49.01407  eV     1   --> A              
     e(  7 -  7) =    -48.99922  eV     1   --> A              
     e(  8 -  8) =    -48.99853  eV     1   --> A              
     e(  9 -  9) =     -5.42843  eV     1   --> A              
     e( 10 - 10) =     -3.96001  eV     1   --> A              
     e( 11 - 11) =      1.88446  eV     1   --> A              
     e( 12 - 12) =      5.08040  eV     1   --> A              
     e( 13 - 13) =      5.10675  eV     1   --> A              
     e( 14 - 14) =      7.62238  eV     1   --> A              
     e( 15 - 15) =      7.67609  eV     1   --> A              
     e( 16 - 16) =      7.82455  eV     1   --> A              
     e( 17 - 17) =      8.60388  eV     1   --> A              
     e( 18 - 18) =      8.74039  eV     1   --> A              
     e( 19 - 19) =      9.22814  eV     1   --> A              
     e( 20 - 20) =      9.29237  eV     1   --> A              
     e( 21 - 21) =      9.34798  eV     1   --> A              
     e( 22 - 22) =      9.91267  eV     1   --> A              
     e( 23 - 23) =     10.69591  eV     1   --> A              
     e( 24 - 24) =     10.73172  eV     1   --> A              
     e( 25 - 25) =     16.35834  eV     1   --> A              
     e( 26 - 26) =     16.89996  eV     1   --> A              
     e( 27 - 27) =     16.90934  eV     1   --> A              
     e( 28 - 28) =     20.25701  eV     1   --> A              
     e( 29 - 29) =     24.64835  eV     1   --> A              
     e( 30 - 30) =     28.31521  eV     1   --> A              
     e( 31 - 31) =     28.59898  eV     1   --> A              
     e( 32 - 32) =     31.47477  eV     1   --> A              
     e( 33 - 33) =     33.28765  eV     1   --> A              
     e( 34 - 34) =     33.28807  eV     1   --> A              
     e( 35 - 35) =     33.83060  eV     1   --> A              
     e( 36 - 36) =     36.02831  eV     1   --> A              
     e( 37 - 37) =     36.58305  eV     1   --> A              
     e( 38 - 38) =     36.58865  eV     1   --> A              
     e( 39 - 39) =     37.16336  eV     1   --> A              
     e( 40 - 40) =     39.43003  eV     1   --> A              
     e( 41 - 41) =     40.24265  eV     1   --> A              
     e( 42 - 42) =     40.96343  eV     1   --> A              
     e( 43 - 43) =     40.97659  eV     1   --> A              
     e( 44 - 44) =     41.80064  eV     1   --> A              
     e( 45 - 45) =     43.54493  eV     1   --> A              
     e( 46 - 46) =     43.79548  eV     1   --> A              
     e( 47 - 47) =     50.19804  eV     1   --> A              
     e( 48 - 48) =     50.83090  eV     1   --> A              
     e( 49 - 49) =     50.83287  eV     1   --> A              
     e( 50 - 50) =     51.76309  eV     1   --> A              
     e( 51 - 51) =     54.69719  eV     1   --> A              
     e( 52 - 52) =     54.71819  eV     1   --> A              
     e( 53 - 53) =     56.06493  eV     1   --> A              
     e( 54 - 54) =     57.72470  eV     1   --> A              
     e( 55 - 55) =     58.80283  eV     1   --> A              
     e( 56 - 56) =     59.09763  eV     1   --> A              
     e( 57 - 57) =     64.82228  eV     1   --> A              
     e( 58 - 58) =     65.86756  eV     1   --> A              
     e( 59 - 59) =     66.71523  eV     1   --> A              
     e( 60 - 60) =     66.71589  eV     1   --> A              
     e( 61 - 61) =     68.11727  eV     1   --> A              
     e( 62 - 62) =     68.19009  eV     1   --> A              
     e( 63 - 63) =     70.98219  eV     1   --> A              
     e( 64 - 64) =     70.98334  eV     1   --> A              
     e( 65 - 65) =     70.98385  eV     1   --> A              
     e( 66 - 66) =     71.85777  eV     1   --> A              
     e( 67 - 67) =     72.38443  eV     1   --> A              
     e( 68 - 68) =     72.40600  eV     1   --> A              
     e( 69 - 69) =     72.52094  eV     1   --> A              
     e( 70 - 70) =     72.57171  eV     1   --> A              
     e( 71 - 71) =     72.89528  eV     1   --> A              
     e( 72 - 72) =     73.81152  eV     1   --> A              
     e( 73 - 73) =     74.26340  eV     1   --> A              
     e( 74 - 74) =     78.53409  eV     1   --> A              
     e( 75 - 75) =     79.09865  eV     1   --> A              
     e( 76 - 76) =     79.85723  eV     1   --> A              
     e( 77 - 77) =     80.71627  eV     1   --> A              
     e( 78 - 78) =     83.80434  eV     1   --> A              
     e( 79 - 79) =     83.87989  eV     1   --> A              
     e( 80 - 80) =     87.30875  eV     1   --> A              
     e( 81 - 81) =     87.61075  eV     1   --> A              
     e( 82 - 82) =     87.62805  eV     1   --> A              
     e( 83 - 83) =     87.62996  eV     1   --> A              
     e( 84 - 84) =     89.40282  eV     1   --> A              
     e( 85 - 85) =     89.83466  eV     1   --> A              
     e( 86 - 86) =     89.90040  eV     1   --> A              
     e( 87 - 87) =     90.41277  eV     1   --> A              
     e( 88 - 88) =     90.72286  eV     1   --> A              
     e( 89 - 89) =     91.83697  eV     1   --> A              
     e( 90 - 90) =     91.98984  eV     1   --> A              
     e( 91 - 91) =     91.99051  eV     1   --> A              
     e( 92 - 92) =     92.13782  eV     1   --> A              
     e( 93 - 93) =     92.60407  eV     1   --> A              
     e( 94 - 94) =     93.87330  eV     1   --> A              
     e( 95 - 95) =     93.88912  eV     1   --> A              
     e( 96 - 96) =     94.21898  eV     1   --> A              
     e( 97 - 97) =     95.23316  eV     1   --> A              
     e( 98 - 98) =     95.42490  eV     1   --> A              
     e( 99 - 99) =     96.04462  eV     1   --> A              
     e(100 -100) =     96.04809  eV     1   --> A              

 **************************************************************************

 **************************************************************************

                    xk=(   0.00000,  -0.10768,  -0.06594  )

     Band symmetry, C_1 (1)     point group:

     e(  1 -  1) =    -90.85032  eV     1   --> A              
     e(  2 -  2) =    -88.64927  eV     1   --> A              
     e(  3 -  3) =    -51.16239  eV     1   --> A              
     e(  4 -  4) =    -51.14831  eV     1   --> A              
     e(  5 -  5) =    -51.14730  eV     1   --> A              
     e(  6 -  6) =    -49.01424  eV     1   --> A              
     e(  7 -  7) =    -48.99976  eV     1   --> A              
     e(  8 -  8) =    -48.99870  eV     1   --> A              
     e(  9 -  9) =     -5.42197  eV     1   --> A              
     e( 10 - 10) =     -3.96652  eV     1   --> A              
     e( 11 - 11) =      1.92881  eV     1   --> A              
     e( 12 - 12) =      5.07162  eV     1   --> A              
     e( 13 - 13) =      5.11221  eV     1   --> A              
     e( 14 - 14) =      7.56979  eV     1   --> A              
     e( 15 - 15) =      7.66127  eV     1   --> A              
     e( 16 - 16) =      7.81952  eV     1   --> A              
     e( 17 - 17) =      8.53559  eV     1   --> A              
     e( 18 - 18) =      8.73908  eV     1   --> A              
     e( 19 - 19) =      9.19957  eV     1   --> A              
     e( 20 - 20) =      9.29375  eV     1   --> A              
     e( 21 - 21) =      9.37392  eV     1   --> A              
     e( 22 - 22) =      9.90792  eV     1   --> A              
     e( 23 - 23) =     10.68984  eV     1   --> A              
     e( 24 - 24) =     10.74298  eV     1   --> A              
     e( 25 - 25) =     16.44494  eV     1   --> A              
     e( 26 - 26) =     16.88890  eV     1   --> A              
     e( 27 - 27) =     16.90238  eV     1   --> A              
     e( 28 - 28) =     20.33705  eV     1   --> A              
     e( 29 - 29) =     24.62836  eV     1   --> A              
     e( 30 - 30) =     28.20650  eV     1   --> A              
     e( 31 - 31) =     28.63920  eV     1   --> A              
     e( 32 - 32) =     31.19156  eV     1   --> A              
     e( 33 - 33) =     33.24529  eV     1   --> A              
     e( 34 - 34) =     33.24586  eV     1   --> A              
     e( 35 - 35) =     33.97073  eV     1   --> A              
     e( 36 - 36) =     36.18219  eV     1   --> A              
     e( 37 - 37) =     36.47641  eV     1   --> A              
     e( 38 - 38) =     36.48068  eV     1   --> A              
     e( 39 - 39) =     37.34455  eV     1   --> A              
     e( 40 - 40) =     39.15194  eV     1   --> A              
     e( 41 - 41) =     40.25604  eV     1   --> A              
     e( 42 - 42) =     41.17788  eV     1   --> A              
     e( 43 - 43) =     41.18742  eV     1   --> A              
     e( 44 - 44) =     41.94546  eV     1   --> A              
     e( 45 - 45) =     43.59834  eV     1   --> A              
     e( 46 - 46) =     43.97531  eV     1   --> A              
     e( 47 - 47) =     50.01276  eV     1   --> A              
     e( 48 - 48) =     50.82641  eV     1   --> A              
     e( 49 - 49) =     50.82838  eV     1   --> A              
     e( 50 - 50) =     51.98761  eV     1   --> A              
     e( 51 - 51) =     54.63946  eV     1   --> A              
     e( 52 - 52) =     54.66441  eV     1   --> A              
     e( 53 - 53) =     55.91135  eV     1   --> A              
     e( 54 - 54) =     57.93770  eV     1   --> A              
     e( 55 - 55) =     58.71915  eV     1   --> A              
     e( 56 - 56) =     59.19338  eV     1   --> A              
     e( 57 - 57) =     64.46993  eV     1   --> A              
     e( 58 - 58) =     65.93742  eV     1   --> A              
     e( 59 - 59) =     66.21089  eV     1   --> A              
     e( 60 - 60) =     66.21459  eV     1   --> A              
     e( 61 - 61) =     68.14816  eV     1   --> A              
     e( 62 - 62) =     68.38506  eV     1   --> A              
     e( 63 - 63) =     70.98297  eV     1   --> A              
     e( 64 - 64) =     71.00112  eV     1   --> A              
     e( 65 - 65) =     71.00180  eV     1   --> A              
     e( 66 - 66) =     71.47583  eV     1   --> A              
     e( 67 - 67) =     72.25105  eV     1   --> A              
     e( 68 - 68) =     72.57327  eV     1   --> A              
     e( 69 - 69) =     72.95742  eV     1   --> A              
     e( 70 - 70) =     72.97618  eV     1   --> A              
     e( 71 - 71) =     72.99276  eV     1   --> A              
     e( 72 - 72) =     73.92962  eV     1   --> A              
     e( 73 - 73) =     74.27737  eV     1   --> A              
     e( 74 - 74) =     78.64553  eV     1   --> A              
     e( 75 - 75) =     79.05427  eV     1   --> A              
     e( 76 - 76) =     79.81586  eV     1   --> A              
     e( 77 - 77) =     80.66836  eV     1   --> A              
     e( 78 - 78) =     84.27831  eV     1   --> A              
     e( 79 - 79) =     84.31852  eV     1   --> A              
     e( 80 - 80) =     86.67468  eV     1   --> A              
     e( 81 - 81) =     87.37989  eV     1   --> A              
     e( 82 - 82) =     87.39105  eV     1   --> A              
     e( 83 - 83) =     87.39198  eV     1   --> A              
     e( 84 - 84) =     89.15323  eV     1   --> A              
     e( 85 - 85) =     89.40789  eV     1   --> A              
     e( 86 - 86) =     89.49229  eV     1   --> A              
     e( 87 - 87) =     90.17699  eV     1   --> A              
     e( 88 - 88) =     90.49047  eV     1   --> A              
     e( 89 - 89) =     91.30257  eV     1   --> A              
     e( 90 - 90) =     91.57701  eV     1   --> A              
     e( 91 - 91) =     91.57853  eV     1   --> A              
     e( 92 - 92) =     92.32513  eV     1   --> A              
     e( 93 - 93) =     92.37169  eV     1   --> A              
     e( 94 - 94) =     93.91727  eV     1   --> A              
     e( 95 - 95) =     93.92901  eV     1   --> A              
     e( 96 - 96) =     94.50280  eV     1   --> A              
     e( 97 - 97) =     95.51486  eV     1   --> A              
     e( 98 - 98) =     95.75778  eV     1   --> A              
     e( 99 - 99) =     96.44705  eV     1   --> A              
     e(100 -100) =     96.45165  eV     1   --> A              

 **************************************************************************

 **************************************************************************

                    xk=(   0.00000,  -0.12922,  -0.07913  )

     Band symmetry, C_1 (1)     point group:

     e(  1 -  1) =    -90.85038  eV     1   --> A              
     e(  2 -  2) =    -88.64959  eV     1   --> A              
     e(  3 -  3) =    -51.16259  eV     1   --> A              
     e(  4 -  4) =    -51.14880  eV     1   --> A              
     e(  5 -  5) =    -51.14759  eV     1   --> A              
     e(  6 -  6) =    -49.01445  eV     1   --> A              
     e(  7 -  7) =    -49.00041  eV     1   --> A              
     e(  8 -  8) =    -48.99891  eV     1   --> A              
     e(  9 -  9) =     -5.41388  eV     1   --> A              
     e( 10 - 10) =     -3.97426  eV     1   --> A              
     e( 11 - 11) =      1.98240  eV     1   --> A              
     e( 12 - 12) =      5.06114  eV     1   --> A              
     e( 13 - 13) =      5.11874  eV     1   --> A              
     e( 14 - 14) =      7.50110  eV     1   --> A              
     e( 15 - 15) =      7.64357  eV     1   --> A              
     e( 16 - 16) =      7.81466  eV     1   --> A              
     e( 17 - 17) =      8.45996  eV     1   --> A              
     e( 18 - 18) =      8.73802  eV     1   --> A              
     e( 19 - 19) =      9.16927  eV     1   --> A              
     e( 20 - 20) =      9.29519  eV     1   --> A              
     e( 21 - 21) =      9.39982  eV     1   --> A              
     e( 22 - 22) =      9.90206  eV     1   --> A              
     e( 23 - 23) =     10.68324  eV     1   --> A              
     e( 24 - 24) =     10.75602  eV     1   --> A              
     e( 25 - 25) =     16.54725  eV     1   --> A              
     e( 26 - 26) =     16.87699  eV     1   --> A              
     e( 27 - 27) =     16.89433  eV     1   --> A              
     e( 28 - 28) =     20.43177  eV     1   --> A              
     e( 29 - 29) =     24.60408  eV     1   --> A              
     e( 30 - 30) =     28.08209  eV     1   --> A              
     e( 31 - 31) =     28.68768  eV     1   --> A              
     e( 32 - 32) =     30.89746  eV     1   --> A              
     e( 33 - 33) =     33.18966  eV     1   --> A              
     e( 34 - 34) =     33.19044  eV     1   --> A              
     e( 35 - 35) =     34.09422  eV     1   --> A              
     e( 36 - 36) =     36.33409  eV     1   --> A              
     e( 37 - 37) =     36.37213  eV     1   --> A              
     e( 38 - 38) =     36.38187  eV     1   --> A              
     e( 39 - 39) =     37.56214  eV     1   --> A              
     e( 40 - 40) =     38.88739  eV     1   --> A              
     e( 41 - 41) =     40.26995  eV     1   --> A              
     e( 42 - 42) =     41.42107  eV     1   --> A              
     e( 43 - 43) =     41.42826  eV     1   --> A              
     e( 44 - 44) =     42.07613  eV     1   --> A              
     e( 45 - 45) =     43.66278  eV     1   --> A              
     e( 46 - 46) =     44.17840  eV     1   --> A              
     e( 47 - 47) =     49.82392  eV     1   --> A              
     e( 48 - 48) =     50.82092  eV     1   --> A              
     e( 49 - 49) =     50.82290  eV     1   --> A              
     e( 50 - 50) =     52.22507  eV     1   --> A              
     e( 51 - 51) =     54.57749  eV     1   --> A              
     e( 52 - 52) =     54.60001  eV     1   --> A              
     e( 53 - 53) =     55.76866  eV     1   --> A              
     e( 54 - 54) =     58.12649  eV     1   --> A              
     e( 55 - 55) =     58.62102  eV     1   --> A              
     e( 56 - 56) =     59.32904  eV     1   --> A              
     e( 57 - 57) =     64.10280  eV     1   --> A              
     e( 58 - 58) =     65.68848  eV     1   --> A              
     e( 59 - 59) =     65.69665  eV     1   --> A              
     e( 60 - 60) =     66.01511  eV     1   --> A              
     e( 61 - 61) =     68.18589  eV     1   --> A              
     e( 62 - 62) =     68.56610  eV     1   --> A              
     e( 63 - 63) =     70.98059  eV     1   --> A              
     e( 64 - 64) =     71.01082  eV     1   --> A              
     e( 65 - 65) =     71.02401  eV     1   --> A              
     e( 66 - 66) =     71.06576  eV     1   --> A              
     e( 67 - 67) =     71.95216  eV     1   --> A              
     e( 68 - 68) =     72.66495  eV     1   --> A              
     e( 69 - 69) =     73.04429  eV     1   --> A              
     e( 70 - 70) =     73.56796  eV     1   --> A              
     e( 71 - 71) =     73.57040  eV     1   --> A              
     e( 72 - 72) =     74.07582  eV     1   --> A              
     e( 73 - 73) =     74.29256  eV     1   --> A              
     e( 74 - 74) =     78.19820  eV     1   --> A              
     e( 75 - 75) =     79.36379  eV     1   --> A              
     e( 76 - 76) =     80.04016  eV     1   --> A              
     e( 77 - 77) =     80.61848  eV     1   --> A              
     e( 78 - 78) =     84.63169  eV     1   --> A              
     e( 79 - 79) =     84.87969  eV     1   --> A              
     e( 80 - 80) =     86.04289  eV     1   --> A              
     e( 81 - 81) =     87.06260  eV     1   --> A              
     e( 82 - 82) =     87.06298  eV     1   --> A              
     e( 83 - 83) =     87.08640  eV     1   --> A              
     e( 84 - 84) =     88.86508  eV     1   --> A              
     e( 85 - 85) =     88.99838  eV     1   --> A              
     e( 86 - 86) =     89.12897  eV     1   --> A              
     e( 87 - 87) =     89.93349  eV     1   --> A              
     e( 88 - 88) =     90.21253  eV     1   --> A              
     e( 89 - 89) =     90.76284  eV     1   --> A              
     e( 90 - 90) =     91.17594  eV     1   --> A              
     e( 91 - 91) =     91.17716  eV     1   --> A              
     e( 92 - 92) =     92.04506  eV     1   --> A              
     e( 93 - 93) =     92.65405  eV     1   --> A              
     e( 94 - 94) =     93.95611  eV     1   --> A              
     e( 95 - 95) =     93.96652  eV     1   --> A              
     e( 96 - 96) =     94.82204  eV     1   --> A              
     e( 97 - 97) =     95.65469  eV     1   --> A              
     e( 98 - 98) =     96.18836  eV     1   --> A              
     e( 99 - 99) =     96.84269  eV     1   --> A              
     e(100 -100) =     96.84928  eV     1   --> A              

 **************************************************************************

 **************************************************************************

                    xk=(   0.00000,  -0.15076,  -0.09232  )

     Band symmetry, C_1 (1)     point group:

     e(  1 -  1) =    -90.85045  eV     1   --> A              
     e(  2 -  2) =    -88.64993  eV     1   --> A              
     e(  3 -  3) =    -51.16283  eV     1   --> A              
     e(  4 -  4) =    -51.14942  eV     1   --> A              
     e(  5 -  5) =    -51.14789  eV     1   --> A              
     e(  6 -  6) =    -49.01469  eV     1   --> A              
     e(  7 -  7) =    -49.00117  eV     1   --> A              
     e(  8 -  8) =    -48.99915  eV     1   --> A              
     e(  9 -  9) =     -5.40403  eV     1   --> A              
     e( 10 - 10) =     -3.98309  eV     1   --> A              
     e( 11 - 11) =      2.04490  eV     1   --> A              
     e( 12 - 12) =      5.04913  eV     1   --> A              
     e( 13 - 13) =      5.12625  eV     1   --> A              
     e( 14 - 14) =      7.41520  eV     1   --> A              
     e( 15 - 15) =      7.62326  eV     1   --> A              
     e( 16 - 16) =      7.80962  eV     1   --> A              
     e( 17 - 17) =      8.37974  eV     1   --> A              
     e( 18 - 18) =      8.73742  eV     1   --> A              
     e( 19 - 19) =      9.13893  eV     1   --> A              
     e( 20 - 20) =      9.29659  eV     1   --> A              
     e( 21 - 21) =      9.42447  eV     1   --> A              
     e( 22 - 22) =      9.89507  eV     1   --> A              
     e( 23 - 23) =     10.67658  eV     1   --> A              
     e( 24 - 24) =     10.77043  eV     1   --> A              
     e( 25 - 25) =     16.66354  eV     1   --> A              
     e( 26 - 26) =     16.86494  eV     1   --> A              
     e( 27 - 27) =     16.88544  eV     1   --> A              
     e( 28 - 28) =     20.53955  eV     1   --> A              
     e( 29 - 29) =     24.57565  eV     1   --> A              
     e( 30 - 30) =     27.94564  eV     1   --> A              
     e( 31 - 31) =     28.74401  eV     1   --> A              
     e( 32 - 32) =     30.59709  eV     1   --> A              
     e( 33 - 33) =     33.11906  eV     1   --> A              
     e( 34 - 34) =     33.12012  eV     1   --> A              
     e( 35 - 35) =     34.20007  eV     1   --> A              
     e( 36 - 36) =     36.26358  eV     1   --> A              
     e( 37 - 37) =     36.27050  eV     1   --> A              
     e( 38 - 38) =     36.50580  eV     1   --> A              
     e( 39 - 39) =     37.81273  eV     1   --> A              
     e( 40 - 40) =     38.65960  eV     1   --> A              
     e( 41 - 41) =     40.28557  eV     1   --> A              
     e( 42 - 42) =     41.68562  eV     1   --> A              
     e( 43 - 43) =     41.69217  eV     1   --> A              
     e( 44 - 44) =     42.19637  eV     1   --> A              
     e( 45 - 45) =     43.73781  eV     1   --> A              
     e( 46 - 46) =     44.39577  eV     1   --> A              
     e( 47 - 47) =     49.63101  eV     1   --> A              
     e( 48 - 48) =     50.81447  eV     1   --> A              
     e( 49 - 49) =     50.81644  eV     1   --> A              
     e( 50 - 50) =     52.47637  eV     1   --> A              
     e( 51 - 51) =     54.51560  eV     1   --> A              
     e( 52 - 52) =     54.52579  eV     1   --> A              
     e( 53 - 53) =     55.63518  eV     1   --> A              
     e( 54 - 54) =     58.28223  eV     1   --> A              
     e( 55 - 55) =     58.50996  eV     1   --> A              
     e( 56 - 56) =     59.51063  eV     1   --> A              
     e( 57 - 57) =     63.72965  eV     1   --> A              
     e( 58 - 58) =     65.17681  eV     1   --> A              
     e( 59 - 59) =     65.18163  eV     1   --> A              
     e( 60 - 60) =     66.05295  eV     1   --> A              
     e( 61 - 61) =     68.23045  eV     1   --> A              
     e( 62 - 62) =     68.73024  eV     1   --> A              
     e( 63 - 63) =     70.62118  eV     1   --> A              
     e( 64 - 64) =     70.97520  eV     1   --> A              
     e( 65 - 65) =     71.05075  eV     1   --> A              
     e( 66 - 66) =     71.05325  eV     1   --> A              
     e( 67 - 67) =     71.66871  eV     1   --> A              
     e( 68 - 68) =     72.74977  eV     1   --> A              
     e( 69 - 69) =     73.12054  eV     1   --> A              
     e( 70 - 70) =     74.16910  eV     1   --> A              
     e( 71 - 71) =     74.17396  eV     1   --> A              
     e( 72 - 72) =     74.25323  eV     1   --> A              
     e( 73 - 73) =     74.30780  eV     1   --> A              
     e( 74 - 74) =     77.77710  eV     1   --> A              
     e( 75 - 75) =     79.40371  eV     1   --> A              
     e( 76 - 76) =     80.56345  eV     1   --> A              
     e( 77 - 77) =     80.58065  eV     1   --> A              
     e( 78 - 78) =     84.81875  eV     1   --> A              
     e( 79 - 79) =     85.47567  eV     1   --> A              
     e( 80 - 80) =     85.52909  eV     1   --> A              
     e( 81 - 81) =     86.63365  eV     1   --> A              
     e( 82 - 82) =     86.63504  eV     1   --> A              
     e( 83 - 83) =     86.73256  eV     1   --> A              
     e( 84 - 84) =     88.55601  eV     1   --> A              
     e( 85 - 85) =     88.63242  eV     1   --> A              
     e( 86 - 86) =     88.82496  eV     1   --> A              
     e( 87 - 87) =     89.68690  eV     1   --> A              
     e( 88 - 88) =     89.94294  eV     1   --> A              
     e( 89 - 89) =     90.22295  eV     1   --> A              
     e( 90 - 90) =     90.78997  eV     1   --> A              
     e( 91 - 91) =     90.79081  eV     1   --> A              
     e( 92 - 92) =     91.75108  eV     1   --> A              
     e( 93 - 93) =     92.95819  eV     1   --> A              
     e( 94 - 94) =     93.99249  eV     1   --> A              
     e( 95 - 95) =     94.00318  eV     1   --> A              
     e( 96 - 96) =     95.16623  eV     1   --> A              
     e( 97 - 97) =     95.74794  eV     1   --> A              
     e( 98 - 98) =     96.60342  eV     1   --> A              
     e( 99 - 99) =     96.73883  eV     1   --> A              
     e(100 -100) =     96.74320  eV     1   --> A              

 **************************************************************************

 **************************************************************************

                    xk=(   0.00000,  -0.17229,  -0.10551  )

     Band symmetry, C_1 (1)     point group:

     e(  1 -  1) =    -90.85052  eV     1   --> A              
     e(  2 -  2) =    -88.65031  eV     1   --> A              
     e(  3 -  3) =    -51.16311  eV     1   --> A              
     e(  4 -  4) =    -51.15016  eV     1   --> A              
     e(  5 -  5) =    -51.14818  eV     1   --> A              
     e(  6 -  6) =    -49.01496  eV     1   --> A              
     e(  7 -  7) =    -49.00204  eV     1   --> A              
     e(  8 -  8) =    -48.99942  eV     1   --> A              
     e(  9 -  9) =     -5.39230  eV     1   --> A              
     e( 10 - 10) =     -3.99289  eV     1   --> A              
     e( 11 - 11) =      2.11588  eV     1   --> A              
     e( 12 - 12) =      5.03579  eV     1   --> A              
     e( 13 - 13) =      5.13464  eV     1   --> A              
     e( 14 - 14) =      7.31143  eV     1   --> A              
     e( 15 - 15) =      7.60065  eV     1   --> A              
     e( 16 - 16) =      7.80369  eV     1   --> A              
     e( 17 - 17) =      8.29761  eV     1   --> A              
     e( 18 - 18) =      8.73746  eV     1   --> A              
     e( 19 - 19) =      9.10986  eV     1   --> A              
     e( 20 - 20) =      9.29786  eV     1   --> A              
     e( 21 - 21) =      9.44697  eV     1   --> A              
     e( 22 - 22) =      9.88696  eV     1   --> A              
     e( 23 - 23) =     10.67035  eV     1   --> A              
     e( 24 - 24) =     10.78581  eV     1   --> A              
     e( 25 - 25) =     16.79201  eV     1   --> A              
     e( 26 - 26) =     16.85341  eV     1   --> A              
     e( 27 - 27) =     16.87597  eV     1   --> A              
     e( 28 - 28) =     20.65865  eV     1   --> A              
     e( 29 - 29) =     24.54328  eV     1   --> A              
     e( 30 - 30) =     27.80066  eV     1   --> A              
     e( 31 - 31) =     28.80776  eV     1   --> A              
     e( 32 - 32) =     30.29349  eV     1   --> A              
     e( 33 - 33) =     33.03210  eV     1   --> A              
     e( 34 - 34) =     33.03351  eV     1   --> A              
     e( 35 - 35) =     34.28946  eV     1   --> A              
     e( 36 - 36) =     36.17633  eV     1   --> A              
     e( 37 - 37) =     36.18178  eV     1   --> A              
     e( 38 - 38) =     36.61376  eV     1   --> A              
     e( 39 - 39) =     38.09238  eV     1   --> A              
     e( 40 - 40) =     38.50343  eV     1   --> A              
     e( 41 - 41) =     40.30397  eV     1   --> A              
     e( 42 - 42) =     41.96404  eV     1   --> A              
     e( 43 - 43) =     41.97347  eV     1   --> A              
     e( 44 - 44) =     42.31207  eV     1   --> A              
     e( 45 - 45) =     43.82299  eV     1   --> A              
     e( 46 - 46) =     44.61908  eV     1   --> A              
     e( 47 - 47) =     49.43373  eV     1   --> A              
     e( 48 - 48) =     50.80714  eV     1   --> A              
     e( 49 - 49) =     50.80911  eV     1   --> A              
     e( 50 - 50) =     52.74228  eV     1   --> A              
     e( 51 - 51) =     54.44266  eV     1   --> A              
     e( 52 - 52) =     54.45807  eV     1   --> A              
     e( 53 - 53) =     55.50920  eV     1   --> A              
     e( 54 - 54) =     58.38721  eV     1   --> A              
     e( 55 - 55) =     58.40320  eV     1   --> A              
     e( 56 - 56) =     59.73609  eV     1   --> A              
     e( 57 - 57) =     63.35794  eV     1   --> A              
     e( 58 - 58) =     64.66684  eV     1   --> A              
     e( 59 - 59) =     64.67100  eV     1   --> A              
     e( 60 - 60) =     66.04975  eV     1   --> A              
     e( 61 - 61) =     68.28181  eV     1   --> A              
     e( 62 - 62) =     68.87795  eV     1   --> A              
     e( 63 - 63) =     70.20837  eV     1   --> A              
     e( 64 - 64) =     70.96557  eV     1   --> A              
     e( 65 - 65) =     71.08132  eV     1   --> A              
     e( 66 - 66) =     71.08265  eV     1   --> A              
     e( 67 - 67) =     71.41106  eV     1   --> A              
     e( 68 - 68) =     72.81072  eV     1   --> A              
     e( 69 - 69) =     73.19538  eV     1   --> A              
     e( 70 - 70) =     74.32113  eV     1   --> A              
     e( 71 - 71) =     74.43757  eV     1   --> A              
     e( 72 - 72) =     74.78783  eV     1   --> A              
     e( 73 - 73) =     74.79177  eV     1   --> A              
     e( 74 - 74) =     77.40252  eV     1   --> A              
     e( 75 - 75) =     79.39240  eV     1   --> A              
     e( 76 - 76) =     80.50124  eV     1   --> A              
     e( 77 - 77) =     81.21159  eV     1   --> A              
     e( 78 - 78) =     84.46383  eV     1   --> A              
     e( 79 - 79) =     85.50155  eV     1   --> A              
     e( 80 - 80) =     86.03225  eV     1   --> A              
     e( 81 - 81) =     86.11408  eV     1   --> A              
     e( 82 - 82) =     86.18199  eV     1   --> A              
     e( 83 - 83) =     86.32735  eV     1   --> A              
     e( 84 - 84) =     88.25713  eV     1   --> A              
     e( 85 - 85) =     88.31134  eV     1   --> A              
     e( 86 - 86) =     88.55847  eV     1   --> A              
     e( 87 - 87) =     89.44615  eV     1   --> A              
     e( 88 - 88) =     89.68570  eV     1   --> A              
     e( 89 - 89) =     89.69048  eV     1   --> A              
     e( 90 - 90) =     90.42158  eV     1   --> A              
     e( 91 - 91) =     90.42214  eV     1   --> A              
     e( 92 - 92) =     91.46928  eV     1   --> A              
     e( 93 - 93) =     93.25371  eV     1   --> A              
     e( 94 - 94) =     94.02727  eV     1   --> A              
     e( 95 - 95) =     94.03988  eV     1   --> A              
     e( 96 - 96) =     95.52646  eV     1   --> A              
     e( 97 - 97) =     95.79239  eV     1   --> A              
     e( 98 - 98) =     96.41729  eV     1   --> A              
     e( 99 - 99) =     96.42449  eV     1   --> A              
     e(100 -100) =     96.99650  eV     1   --> A              

 **************************************************************************

 **************************************************************************

                    xk=(   0.00000,  -0.19383,  -0.11870  )

     Band symmetry, C_1 (1)     point group:

     e(  1 -  1) =    -90.85060  eV     1   --> A              
     e(  2 -  2) =    -88.65070  eV     1   --> A              
     e(  3 -  3) =    -51.16342  eV     1   --> A              
     e(  4 -  4) =    -51.15100  eV     1   --> A              
     e(  5 -  5) =    -51.14850  eV     1   --> A              
     e(  6 -  6) =    -49.01527  eV     1   --> A              
     e(  7 -  7) =    -49.00299  eV     1   --> A              
     e(  8 -  8) =    -48.99973  eV     1   --> A              
     e(  9 -  9) =     -5.37856  eV     1   --> A              
     e( 10 - 10) =     -4.00351  eV     1   --> A              
     e( 11 - 11) =      2.19488  eV     1   --> A              
     e( 12 - 12) =      5.02136  eV     1   --> A              
     e( 13 - 13) =      5.14378  eV     1   --> A              
     e( 14 - 14) =      7.18978  eV     1   --> A              
     e( 15 - 15) =      7.57612  eV     1   --> A              
     e( 16 - 16) =      7.79567  eV     1   --> A              
     e( 17 - 17) =      8.21628  eV     1   --> A              
     e( 18 - 18) =      8.73825  eV     1   --> A              
     e( 19 - 19) =      9.08298  eV     1   --> A              
     e( 20 - 20) =      9.29891  eV     1   --> A              
     e( 21 - 21) =      9.46667  eV     1   --> A              
     e( 22 - 22) =      9.87775  eV     1   --> A              
     e( 23 - 23) =     10.66510  eV     1   --> A              
     e( 24 - 24) =     10.80172  eV     1   --> A              
     e( 25 - 25) =     16.84295  eV     1   --> A              
     e( 26 - 26) =     16.86623  eV     1   --> A              
     e( 27 - 27) =     16.93092  eV     1   --> A              
     e( 28 - 28) =     20.78718  eV     1   --> A              
     e( 29 - 29) =     24.50728  eV     1   --> A              
     e( 30 - 30) =     27.65041  eV     1   --> A              
     e( 31 - 31) =     28.87840  eV     1   --> A              
     e( 32 - 32) =     29.98884  eV     1   --> A              
     e( 33 - 33) =     32.92796  eV     1   --> A              
     e( 34 - 34) =     32.92978  eV     1   --> A              
     e( 35 - 35) =     34.36453  eV     1   --> A              
     e( 36 - 36) =     36.10566  eV     1   --> A              
     e( 37 - 37) =     36.11038  eV     1   --> A              
     e( 38 - 38) =     36.63340  eV     1   --> A              
     e( 39 - 39) =     38.39683  eV     1   --> A              
     e( 40 - 40) =     38.46185  eV     1   --> A              
     e( 41 - 41) =     40.32607  eV     1   --> A              
     e( 42 - 42) =     42.24139  eV     1   --> A              
     e( 43 - 43) =     42.26744  eV     1   --> A              
     e( 44 - 44) =     42.43717  eV     1   --> A              
     e( 45 - 45) =     43.91788  eV     1   --> A              
     e( 46 - 46) =     44.84115  eV     1   --> A              
     e( 47 - 47) =     49.23206  eV     1   --> A              
     e( 48 - 48) =     50.79907  eV     1   --> A              
     e( 49 - 49) =     50.80105  eV     1   --> A              
     e( 50 - 50) =     53.02336  eV     1   --> A              
     e( 51 - 51) =     54.35169  eV     1   --> A              
     e( 52 - 52) =     54.40887  eV     1   --> A              
     e( 53 - 53) =     55.38926  eV     1   --> A              
     e( 54 - 54) =     58.25360  eV     1   --> A              
     e( 55 - 55) =     58.49456  eV     1   --> A              
     e( 56 - 56) =     59.99427  eV     1   --> A              
     e( 57 - 57) =     62.99611  eV     1   --> A              
     e( 58 - 58) =     64.16430  eV     1   --> A              
     e( 59 - 59) =     64.16824  eV     1   --> A              
     e( 60 - 60) =     65.98437  eV     1   --> A              
     e( 61 - 61) =     68.33995  eV     1   --> A              
     e( 62 - 62) =     69.01159  eV     1   --> A              
     e( 63 - 63) =     69.81590  eV     1   --> A              
     e( 64 - 64) =     70.95032  eV     1   --> A              
     e( 65 - 65) =     71.11475  eV     1   --> A              
     e( 66 - 66) =     71.11569  eV     1   --> A              
     e( 67 - 67) =     71.20224  eV     1   --> A              
     e( 68 - 68) =     72.82609  eV     1   --> A              
     e( 69 - 69) =     73.26615  eV     1   --> A              
     e( 70 - 70) =     74.33139  eV     1   --> A              
     e( 71 - 71) =     74.65011  eV     1   --> A              
     e( 72 - 72) =     75.40489  eV     1   --> A              
     e( 73 - 73) =     75.40778  eV     1   --> A              
     e( 74 - 74) =     77.09572  eV     1   --> A              
     e( 75 - 75) =     79.38769  eV     1   --> A              
     e( 76 - 76) =     80.43000  eV     1   --> A              
     e( 77 - 77) =     81.86841  eV     1   --> A              
     e( 78 - 78) =     83.85000  eV     1   --> A              
     e( 79 - 79) =     85.51145  eV     1   --> A              
     e( 80 - 80) =     85.51517  eV     1   --> A              
     e( 81 - 81) =     85.67846  eV     1   --> A              
     e( 82 - 82) =     85.89012  eV     1   --> A              
     e( 83 - 83) =     86.74373  eV     1   --> A              
     e( 84 - 84) =     87.97532  eV     1   --> A              
     e( 85 - 85) =     88.02061  eV     1   --> A              
     e( 86 - 86) =     88.32304  eV     1   --> A              
     e( 87 - 87) =     89.15284  eV     1   --> A              
     e( 88 - 88) =     89.22209  eV     1   --> A              
     e( 89 - 89) =     89.44680  eV     1   --> A              
     e( 90 - 90) =     90.07300  eV     1   --> A              
     e( 91 - 91) =     90.07346  eV     1   --> A              
     e( 92 - 92) =     91.21661  eV     1   --> A              
     e( 93 - 93) =     93.52922  eV     1   --> A              
     e( 94 - 94) =     94.06053  eV     1   --> A              
     e( 95 - 95) =     94.07766  eV     1   --> A              
     e( 96 - 96) =     95.78411  eV     1   --> A              
     e( 97 - 97) =     95.88020  eV     1   --> A              
     e( 98 - 98) =     96.11788  eV     1   --> A              
     e( 99 - 99) =     96.14644  eV     1   --> A              
     e(100 -100) =     97.36752  eV     1   --> A              

 **************************************************************************

 **************************************************************************

                    xk=(   0.00000,  -0.21537,  -0.13188  )

     Band symmetry, C_1 (1)     point group:

     e(  1 -  1) =    -90.85068  eV     1   --> A              
     e(  2 -  2) =    -88.65110  eV     1   --> A              
     e(  3 -  3) =    -51.16377  eV     1   --> A              
     e(  4 -  4) =    -51.15193  eV     1   --> A              
     e(  5 -  5) =    -51.14883  eV     1   --> A              
     e(  6 -  6) =    -49.01562  eV     1   --> A              
     e(  7 -  7) =    -49.00404  eV     1   --> A              
     e(  8 -  8) =    -49.00006  eV     1   --> A              
     e(  9 -  9) =     -5.36266  eV     1   --> A              
     e( 10 - 10) =     -4.01479  eV     1   --> A              
     e( 11 - 11) =      2.28135  eV     1   --> A              
     e( 12 - 12) =      5.00612  eV     1   --> A              
     e( 13 - 13) =      5.15353  eV     1   --> A              
     e( 14 - 14) =      7.05090  eV     1   --> A              
     e( 15 - 15) =      7.55009  eV     1   --> A              
     e( 16 - 16) =      7.78344  eV     1   --> A              
     e( 17 - 17) =      8.13888  eV     1   --> A              
     e( 18 - 18) =      8.73988  eV     1   --> A              
     e( 19 - 19) =      9.05884  eV     1   --> A              
     e( 20 - 20) =      9.29968  eV     1   --> A              
     e( 21 - 21) =      9.48306  eV     1   --> A              
     e( 22 - 22) =      9.86751  eV     1   --> A              
     e( 23 - 23) =     10.66131  eV     1   --> A              
     e( 24 - 24) =     10.81776  eV     1   --> A              
     e( 25 - 25) =     16.83412  eV     1   --> A              
     e( 26 - 26) =     16.85651  eV     1   --> A              
     e( 27 - 27) =     17.07847  eV     1   --> A              
     e( 28 - 28) =     20.92311  eV     1   --> A              
     e( 29 - 29) =     24.46811  eV     1   --> A              
     e( 30 - 30) =     27.49782  eV     1   --> A              
     e( 31 - 31) =     28.95538  eV     1   --> A              
     e( 32 - 32) =     29.68482  eV     1   --> A              
     e( 33 - 33) =     32.80663  eV     1   --> A              
     e( 34 - 34) =     32.80892  eV     1   --> A              
     e( 35 - 35) =     34.42778  eV     1   --> A              
     e( 36 - 36) =     36.05483  eV     1   --> A              
     e( 37 - 37) =     36.05913  eV     1   --> A              
     e( 38 - 38) =     36.54213  eV     1   --> A              
     e( 39 - 39) =     38.55539  eV     1   --> A              
     e( 40 - 40) =     38.72281  eV     1   --> A              
     e( 41 - 41) =     40.35272  eV     1   --> A              
     e( 42 - 42) =     42.45517  eV     1   --> A              
     e( 43 - 43) =     42.57000  eV     1   --> A              
     e( 44 - 44) =     42.63308  eV     1   --> A              
     e( 45 - 45) =     44.02211  eV     1   --> A              
     e( 46 - 46) =     45.05605  eV     1   --> A              
     e( 47 - 47) =     49.02633  eV     1   --> A              
     e( 48 - 48) =     50.79053  eV     1   --> A              
     e( 49 - 49) =     50.79252  eV     1   --> A              
     e( 50 - 50) =     53.31990  eV     1   --> A              
     e( 51 - 51) =     54.25404  eV     1   --> A              
     e( 52 - 52) =     54.37148  eV     1   --> A              
     e( 53 - 53) =     55.27433  eV     1   --> A              
     e( 54 - 54) =     58.10948  eV     1   --> A              
     e( 55 - 55) =     58.56383  eV     1   --> A              
     e( 56 - 56) =     60.26643  eV     1   --> A              
     e( 57 - 57) =     62.65718  eV     1   --> A              
     e( 58 - 58) =     63.67202  eV     1   --> A              
     e( 59 - 59) =     63.67588  eV     1   --> A              
     e( 60 - 60) =     65.84343  eV     1   --> A              
     e( 61 - 61) =     68.40478  eV     1   --> A              
     e( 62 - 62) =     69.13425  eV     1   --> A              
     e( 63 - 63) =     69.43739  eV     1   --> A              
     e( 64 - 64) =     70.92785  eV     1   --> A              
     e( 65 - 65) =     71.06053  eV     1   --> A              
     e( 66 - 66) =     71.15362  eV     1   --> A              
     e( 67 - 67) =     71.15776  eV     1   --> A              
     e( 68 - 68) =     72.77303  eV     1   --> A              
     e( 69 - 69) =     73.33058  eV     1   --> A              
     e( 70 - 70) =     74.33636  eV     1   --> A              
     e( 71 - 71) =     74.87667  eV     1   --> A              
     e( 72 - 72) =     76.02091  eV     1   --> A              
     e( 73 - 73) =     76.02334  eV     1   --> A              
     e( 74 - 74) =     76.87548  eV     1   --> A              
     e( 75 - 75) =     79.39924  eV     1   --> A              
     e( 76 - 76) =     80.34741  eV     1   --> A              
     e( 77 - 77) =     82.53484  eV     1   --> A              
     e( 78 - 78) =     83.21462  eV     1   --> A              
     e( 79 - 79) =     84.88209  eV     1   --> A              
     e( 80 - 80) =     84.88388  eV     1   --> A              
     e( 81 - 81) =     85.39381  eV     1   --> A              
     e( 82 - 82) =     85.82348  eV     1   --> A              
     e( 83 - 83) =     87.32226  eV     1   --> A              
     e( 84 - 84) =     87.70364  eV     1   --> A              
     e( 85 - 85) =     87.74358  eV     1   --> A              
     e( 86 - 86) =     88.17125  eV     1   --> A              
     e( 87 - 87) =     88.62584  eV     1   --> A              
     e( 88 - 88) =     88.99786  eV     1   --> A              
     e( 89 - 89) =     89.22789  eV     1   --> A              
     e( 90 - 90) =     89.74641  eV     1   --> A              
     e( 91 - 91) =     89.74705  eV     1   --> A              
     e( 92 - 92) =     91.00608  eV     1   --> A              
     e( 93 - 93) =     93.77461  eV     1   --> A              
     e( 94 - 94) =     94.09193  eV     1   --> A              
     e( 95 - 95) =     94.11978  eV     1   --> A              
     e( 96 - 96) =     95.72352  eV     1   --> A              
     e( 97 - 97) =     95.83259  eV     1   --> A              
     e( 98 - 98) =     95.84963  eV     1   --> A              
     e( 99 - 99) =     96.30705  eV     1   --> A              
     e(100 -100) =     97.71996  eV     1   --> A              

 **************************************************************************

 **************************************************************************

                    xk=(   0.00000,  -0.23690,  -0.14507  )

     Band symmetry, C_1 (1)     point group:

     e(  1 -  1) =    -90.85077  eV     1   --> A              
     e(  2 -  2) =    -88.65149  eV     1   --> A              
     e(  3 -  3) =    -51.16416  eV     1   --> A              
     e(  4 -  4) =    -51.15293  eV     1   --> A              
     e(  5 -  5) =    -51.14918  eV     1   --> A              
     e(  6 -  6) =    -49.01600  eV     1   --> A              
     e(  7 -  7) =    -49.00515  eV     1   --> A              
     e(  8 -  8) =    -49.00042  eV     1   --> A              
     e(  9 -  9) =     -5.34444  eV     1   --> A              
     e( 10 - 10) =     -4.02659  eV     1   --> A              
     e( 11 - 11) =      2.37471  eV     1   --> A              
     e( 12 - 12) =      4.99040  eV     1   --> A              
     e( 13 - 13) =      5.16375  eV     1   --> A              
     e( 14 - 14) =      6.89608  eV     1   --> A              
     e( 15 - 15) =      7.52300  eV     1   --> A              
     e( 16 - 16) =      7.76341  eV     1   --> A              
     e( 17 - 17) =      8.06952  eV     1   --> A              
     e( 18 - 18) =      8.74234  eV     1   --> A              
     e( 19 - 19) =      9.03763  eV     1   --> A              
     e( 20 - 20) =      9.30014  eV     1   --> A              
     e( 21 - 21) =      9.49575  eV     1   --> A              
     e( 22 - 22) =      9.85636  eV     1   --> A              
     e( 23 - 23) =     10.65944  eV     1   --> A              
     e( 24 - 24) =     10.83352  eV     1   --> A              
     e( 25 - 25) =     16.82729  eV     1   --> A              
     e( 26 - 26) =     16.84713  eV     1   --> A              
     e( 27 - 27) =     17.23303  eV     1   --> A              
     e( 28 - 28) =     21.06426  eV     1   --> A              
     e( 29 - 29) =     24.42642  eV     1   --> A              
     e( 30 - 30) =     27.34547  eV     1   --> A              
     e( 31 - 31) =     29.03810  eV     1   --> A              
     e( 32 - 32) =     29.38278  eV     1   --> A              
     e( 33 - 33) =     32.66893  eV     1   --> A              
     e( 34 - 34) =     32.67172  eV     1   --> A              
     e( 35 - 35) =     34.48159  eV     1   --> A              
     e( 36 - 36) =     36.02506  eV     1   --> A              
     e( 37 - 37) =     36.02942  eV     1   --> A              
     e( 38 - 38) =     36.35999  eV     1   --> A              
     e( 39 - 39) =     38.76412  eV     1   --> A              
     e( 40 - 40) =     39.06579  eV     1   --> A              
     e( 41 - 41) =     40.38471  eV     1   --> A              
     e( 42 - 42) =     42.58479  eV     1   --> A              
     e( 43 - 43) =     42.87744  eV     1   --> A              
     e( 44 - 44) =     42.91898  eV     1   --> A              
     e( 45 - 45) =     44.13538  eV     1   --> A              
     e( 46 - 46) =     45.25905  eV     1   --> A              
     e( 47 - 47) =     48.81717  eV     1   --> A              
     e( 48 - 48) =     50.78191  eV     1   --> A              
     e( 49 - 49) =     50.78391  eV     1   --> A              
     e( 50 - 50) =     53.63178  eV     1   --> A              
     e( 51 - 51) =     54.15098  eV     1   --> A              
     e( 52 - 52) =     54.34879  eV     1   --> A              
     e( 53 - 53) =     55.16384  eV     1   --> A              
     e( 54 - 54) =     57.95476  eV     1   --> A              
     e( 55 - 55) =     58.61738  eV     1   --> A              
     e( 56 - 56) =     60.52156  eV     1   --> A              
[...]

 **************************************************************************

 **************************************************************************

                    xk=(   0.00781,  -0.02591,  -0.04231  )

     Band symmetry, C_1 (1)     point group:

     e(  1 -  1) =    -90.85019  eV     1   --> A              
     e(  2 -  2) =    -88.64861  eV     1   --> A              
     e(  3 -  3) =    -51.16200  eV     1   --> A              
     e(  4 -  4) =    -51.14766  eV     1   --> A              
     e(  5 -  5) =    -51.14646  eV     1   --> A              
     e(  6 -  6) =    -49.01386  eV     1   --> A              
     e(  7 -  7) =    -48.99858  eV     1   --> A              
     e(  8 -  8) =    -48.99823  eV     1   --> A              
     e(  9 -  9) =     -5.43685  eV     1   --> A              
     e( 10 - 10) =     -3.94945  eV     1   --> A              
     e( 11 - 11) =      1.82262  eV     1   --> A              
     e( 12 - 12) =      5.09171  eV     1   --> A              
     e( 13 - 13) =      5.09907  eV     1   --> A              
     e( 14 - 14) =      7.68603  eV     1   --> A              
     e( 15 - 15) =      7.69341  eV     1   --> A              
     e( 16 - 16) =      7.83654  eV     1   --> A              
     e( 17 - 17) =      8.70501  eV     1   --> A              
     e( 18 - 18) =      8.74843  eV     1   --> A              
     e( 19 - 19) =      9.26308  eV     1   --> A              
     e( 20 - 20) =      9.28971  eV     1   --> A              
     e( 21 - 21) =      9.31081  eV     1   --> A              
     e( 22 - 22) =      9.91906  eV     1   --> A              
     e( 23 - 23) =     10.70564  eV     1   --> A              
     e( 24 - 24) =     10.71380  eV     1   --> A              
     e( 25 - 25) =     16.23801  eV     1   --> A              
     e( 26 - 26) =     16.91421  eV     1   --> A              
     e( 27 - 27) =     16.92164  eV     1   --> A              
     e( 28 - 28) =     20.15006  eV     1   --> A              
     e( 29 - 29) =     24.67351  eV     1   --> A              
     e( 30 - 30) =     28.46443  eV     1   --> A              
     e( 31 - 31) =     28.54344  eV     1   --> A              
     e( 32 - 32) =     31.97624  eV     1   --> A              
     e( 33 - 33) =     33.29532  eV     1   --> A              
     e( 34 - 34) =     33.35989  eV     1   --> A              
     e( 35 - 35) =     33.54902  eV     1   --> A              
     e( 36 - 36) =     35.80826  eV     1   --> A              
     e( 37 - 37) =     36.68230  eV     1   --> A              
     e( 38 - 38) =     36.83760  eV     1   --> A              
     e( 39 - 39) =     36.92860  eV     1   --> A              
     e( 40 - 40) =     39.96991  eV     1   --> A              
     e( 41 - 41) =     40.17945  eV     1   --> A              
     e( 42 - 42) =     40.62218  eV     1   --> A              
     e( 43 - 43) =     40.70738  eV     1   --> A              
     e( 44 - 44) =     41.49912  eV     1   --> A              
     e( 45 - 45) =     43.48418  eV     1   --> A              
     e( 46 - 46) =     43.51576  eV     1   --> A              
     e( 47 - 47) =     50.56369  eV     1   --> A              
     e( 48 - 48) =     50.83036  eV     1   --> A              
     e( 49 - 49) =     50.84174  eV     1   --> A              
     e( 50 - 50) =     51.34936  eV     1   --> A              
     e( 51 - 51) =     54.76182  eV     1   --> A              
     e( 52 - 52) =     54.81816  eV     1   --> A              
     e( 53 - 53) =     56.64632  eV     1   --> A              
     e( 54 - 54) =     57.03675  eV     1   --> A              
     e( 55 - 55) =     58.94835  eV     1   --> A              
     e( 56 - 56) =     58.98091  eV     1   --> A              
     e( 57 - 57) =     65.41925  eV     1   --> A              
     e( 58 - 58) =     65.69429  eV     1   --> A              
     e( 59 - 59) =     67.52409  eV     1   --> A              
     e( 60 - 60) =     67.82856  eV     1   --> A              
     e( 61 - 61) =     67.84846  eV     1   --> A              
     e( 62 - 62) =     67.96602  eV     1   --> A              
     e( 63 - 63) =     70.95788  eV     1   --> A              
     e( 64 - 64) =     70.98385  eV     1   --> A              
     e( 65 - 65) =     71.05336  eV     1   --> A              
     e( 66 - 66) =     71.22202  eV     1   --> A              
     e( 67 - 67) =     71.49936  eV     1   --> A              
     e( 68 - 68) =     72.36499  eV     1   --> A              
     e( 69 - 69) =     72.38074  eV     1   --> A              
     e( 70 - 70) =     72.76557  eV     1   --> A              
     e( 71 - 71) =     73.21410  eV     1   --> A              
     e( 72 - 72) =     73.66993  eV     1   --> A              
     e( 73 - 73) =     74.24259  eV     1   --> A              
     e( 74 - 74) =     77.58211  eV     1   --> A              
     e( 75 - 75) =     79.90677  eV     1   --> A              
     e( 76 - 76) =     80.02425  eV     1   --> A              
     e( 77 - 77) =     80.85200  eV     1   --> A              
     e( 78 - 78) =     82.98751  eV     1   --> A              
     e( 79 - 79) =     83.13351  eV     1   --> A              
     e( 80 - 80) =     87.86648  eV     1   --> A              
     e( 81 - 81) =     87.88807  eV     1   --> A              
     e( 82 - 82) =     87.93592  eV     1   --> A              
     e( 83 - 83) =     88.47500  eV     1   --> A              
     e( 84 - 84) =     89.71962  eV     1   --> A              
     e( 85 - 85) =     90.43937  eV     1   --> A              
     e( 86 - 86) =     90.61756  eV     1   --> A              
     e( 87 - 87) =     90.79574  eV     1   --> A              
     e( 88 - 88) =     90.84713  eV     1   --> A              
     e( 89 - 89) =     92.26159  eV     1   --> A              
     e( 90 - 90) =     92.67402  eV     1   --> A              
     e( 91 - 91) =     92.86074  eV     1   --> A              
     e( 92 - 92) =     93.00094  eV     1   --> A              
     e( 93 - 93) =     93.01410  eV     1   --> A              
     e( 94 - 94) =     93.75578  eV     1   --> A              
     e( 95 - 95) =     93.84315  eV     1   --> A              
     e( 96 - 96) =     93.85654  eV     1   --> A              
     e( 97 - 97) =     94.32481  eV     1   --> A              
     e( 98 - 98) =     95.01955  eV     1   --> A              
     e( 99 - 99) =     95.15501  eV     1   --> A              
     e(100 -100) =     95.46320  eV     1   --> A              

 **************************************************************************

 **************************************************************************

                    xk=(   0.00391,  -0.01296,  -0.02116  )

     Band symmetry, C_1 (1)     point group:

     e(  1 -  1) =    -90.85019  eV     1   --> A              
     e(  2 -  2) =    -88.64853  eV     1   --> A              
     e(  3 -  3) =    -51.16194  eV     1   --> A              
     e(  4 -  4) =    -51.14750  eV     1   --> A              
     e(  5 -  5) =    -51.14636  eV     1   --> A              
     e(  6 -  6) =    -49.01379  eV     1   --> A              
     e(  7 -  7) =    -48.99838  eV     1   --> A              
     e(  8 -  8) =    -48.99816  eV     1   --> A              
     e(  9 -  9) =     -5.43888  eV     1   --> A              
     e( 10 - 10) =     -3.94836  eV     1   --> A              
     e( 11 - 11) =      1.80905  eV     1   --> A              
     e( 12 - 12) =      5.09545  eV     1   --> A              
     e( 13 - 13) =      5.09718  eV     1   --> A              
     e( 14 - 14) =      7.69886  eV     1   --> A              
     e( 15 - 15) =      7.70144  eV     1   --> A              
     e( 16 - 16) =      7.83847  eV     1   --> A              
     e( 17 - 17) =      8.73383  eV     1   --> A              
     e( 18 - 18) =      8.74643  eV     1   --> A              
     e( 19 - 19) =      9.28266  eV     1   --> A              
     e( 20 - 20) =      9.28824  eV     1   --> A              
     e( 21 - 21) =      9.29247  eV     1   --> A              
     e( 22 - 22) =      9.92051  eV     1   --> A              
     e( 23 - 23) =     10.70713  eV     1   --> A              
     e( 24 - 24) =     10.71164  eV     1   --> A              
     e( 25 - 25) =     16.20758  eV     1   --> A              
     e( 26 - 26) =     16.92026  eV     1   --> A              
     e( 27 - 27) =     16.92281  eV     1   --> A              
     e( 28 - 28) =     20.11904  eV     1   --> A              
     e( 29 - 29) =     24.68148  eV     1   --> A              
     e( 30 - 30) =     28.51059  eV     1   --> A              
     e( 31 - 31) =     28.53064  eV     1   --> A              
     e( 32 - 32) =     32.14346  eV     1   --> A              
     e( 33 - 33) =     33.34032  eV     1   --> A              
     e( 34 - 34) =     33.35647  eV     1   --> A              
     e( 35 - 35) =     33.41108  eV     1   --> A              
     e( 36 - 36) =     35.74004  eV     1   --> A              
     e( 37 - 37) =     36.79374  eV     1   --> A              
     e( 38 - 38) =     36.83725  eV     1   --> A              
     e( 39 - 39) =     36.85916  eV     1   --> A              
     e( 40 - 40) =     40.13559  eV     1   --> A              
     e( 41 - 41) =     40.19189  eV     1   --> A              
     e( 42 - 42) =     40.58679  eV     1   --> A              
     e( 43 - 43) =     40.60348  eV     1   --> A              
     e( 44 - 44) =     41.33877  eV     1   --> A              
     e( 45 - 45) =     43.45733  eV     1   --> A              
     e( 46 - 46) =     43.46522  eV     1   --> A              
     e( 47 - 47) =     50.73226  eV     1   --> A              
     e( 48 - 48) =     50.83697  eV     1   --> A              
     e( 49 - 49) =     50.84086  eV     1   --> A              
     e( 50 - 50) =     51.16531  eV     1   --> A              
     e( 51 - 51) =     54.80234  eV     1   --> A              
     e( 52 - 52) =     54.81686  eV     1   --> A              
     e( 53 - 53) =     56.70493  eV     1   --> A              
     e( 54 - 54) =     56.94302  eV     1   --> A              
     e( 55 - 55) =     58.95771  eV     1   --> A              
     e( 56 - 56) =     58.96581  eV     1   --> A              
     e( 57 - 57) =     65.61876  eV     1   --> A              
     e( 58 - 58) =     65.69413  eV     1   --> A              
     e( 59 - 59) =     67.67262  eV     1   --> A              
     e( 60 - 60) =     67.90855  eV     1   --> A              
     e( 61 - 61) =     68.00005  eV     1   --> A              
     e( 62 - 62) =     68.03750  eV     1   --> A              
     e( 63 - 63) =     70.94396  eV     1   --> A              
     e( 64 - 64) =     70.95898  eV     1   --> A              
     e( 65 - 65) =     70.98177  eV     1   --> A              
     e( 66 - 66) =     71.03942  eV     1   --> A              
     e( 67 - 67) =     71.10014  eV     1   --> A              
     e( 68 - 68) =     72.36883  eV     1   --> A              
     e( 69 - 69) =     72.49281  eV     1   --> A              
     e( 70 - 70) =     72.72839  eV     1   --> A              
     e( 71 - 71) =     73.50085  eV     1   --> A              
     e( 72 - 72) =     73.62640  eV     1   --> A              
     e( 73 - 73) =     74.23714  eV     1   --> A              
     e( 74 - 74) =     77.23441  eV     1   --> A              
     e( 75 - 75) =     80.14686  eV     1   --> A              
     e( 76 - 76) =     80.18960  eV     1   --> A              
     e( 77 - 77) =     80.92256  eV     1   --> A              
     e( 78 - 78) =     82.74315  eV     1   --> A              
     e( 79 - 79) =     82.78977  eV     1   --> A              
     e( 80 - 80) =     87.94975  eV     1   --> A              
     e( 81 - 81) =     87.95524  eV     1   --> A              
     e( 82 - 82) =     87.96695  eV     1   --> A              
     e( 83 - 83) =     89.00494  eV     1   --> A              
     e( 84 - 84) =     89.87393  eV     1   --> A              
     e( 85 - 85) =     90.16906  eV     1   --> A              
     e( 86 - 86) =     90.88025  eV     1   --> A              
     e( 87 - 87) =     90.93097  eV     1   --> A              
     e( 88 - 88) =     90.95853  eV     1   --> A              
     e( 89 - 89) =     92.61439  eV     1   --> A              
     e( 90 - 90) =     93.12954  eV     1   --> A              
     e( 91 - 91) =     93.15949  eV     1   --> A              
     e( 92 - 92) =     93.18643  eV     1   --> A              
     e( 93 - 93) =     93.23176  eV     1   --> A              
     e( 94 - 94) =     93.65906  eV     1   --> A              
     e( 95 - 95) =     93.70450  eV     1   --> A              
     e( 96 - 96) =     93.73405  eV     1   --> A              
     e( 97 - 97) =     93.86959  eV     1   --> A              
     e( 98 - 98) =     95.00081  eV     1   --> A              
     e( 99 - 99) =     95.06286  eV     1   --> A              
     e(100 -100) =     95.12379  eV     1   --> A              

 **************************************************************************

 **************************************************************************

                    xk=(   0.00000,   0.00000,   0.00000  )

     point group C_i (-1)   
     there are  2 classes
     the character table:

       E     i    
A_g    1.00  1.00
A_u    1.00 -1.00

     the symmetry operations in each class and the name of the first element:

     E        1
                                                                 
     i        2
                                                                 

     Band symmetry, C_i (-1)    point group:

     e(  1 -  1) =    -90.85019  eV     1   --> A_g            
     e(  2 -  2) =    -88.64850  eV     1   --> A_g            
     e(  3 -  3) =    -51.16191  eV     1   --> A_u            
     e(  4 -  4) =    -51.14745  eV     1   --> A_u            
     e(  5 -  5) =    -51.14633  eV     1   --> A_u            
     e(  6 -  6) =    -49.01376  eV     1   --> A_u            
     e(  7 -  7) =    -48.99831  eV     1   --> A_u            
     e(  8 -  8) =    -48.99813  eV     1   --> A_u            
     e(  9 -  9) =     -5.43955  eV     1   --> A_g            
     e( 10 - 10) =     -3.94800  eV     1   --> A_u            
     e( 11 - 11) =      1.80452  eV     1   --> A_g            
     e( 12 - 12) =      5.09634  eV     1   --> A_g            
     e( 13 - 13) =      5.09691  eV     1   --> A_g            
     e( 14 - 14) =      7.70278  eV     1   --> A_g            
     e( 15 - 15) =      7.70434  eV     1   --> A_g            
     e( 16 - 16) =      7.83921  eV     1   --> A_g            
     e( 17 - 17) =      8.74299  eV     1   --> A_g            
     e( 18 - 18) =      8.74662  eV     1   --> A_g            
     e( 19 - 19) =      9.28430  eV     1   --> A_u            
     e( 20 - 21) =      9.28936  eV     2   -->   2 A_u            
     e( 22 - 22) =      9.92099  eV     1   --> A_g            
     e( 23 - 23) =     10.70761  eV     1   --> A_g            
     e( 24 - 24) =     10.71088  eV     1   --> A_g            
     e( 25 - 25) =     16.19736  eV     1   --> A_g            
     e( 26 - 26) =     16.92223  eV     1   --> A_g            
     e( 27 - 27) =     16.92333  eV     1   --> A_g            
     e( 28 - 28) =     20.10862  eV     1   --> A_u            
     e( 29 - 29) =     24.68413  eV     1   --> A_g            
     e( 30 - 30) =     28.52616  eV     1   --> A_u            
     e( 31 - 31) =     28.52642  eV     1   --> A_u            
     e( 32 - 32) =     32.20892  eV     1   --> A_u            
     e( 33 - 33) =     33.35517  eV     1   --> A_g            
     e( 34 - 34) =     33.35540  eV     1   --> A_g            
     e( 35 - 35) =     33.35557  eV     1   --> A_g            
     e( 36 - 36) =     35.71697  eV     1   --> A_g            
     e( 37 - 37) =     36.82978  eV     1   --> A_u            
     e( 38 - 38) =     36.83796  eV     1   --> A_u            
     e( 39 - 39) =     36.83820  eV     1   --> A_u            
     e( 40 - 40) =     40.19504  eV     1   --> A_g            
     e( 41 - 41) =     40.19560  eV     1   --> A_g            
     e( 42 - 42) =     40.57599  eV     1   --> A_g            
     e( 43 - 43) =     40.57657  eV     1   --> A_g            
     e( 44 - 44) =     41.27101  eV     1   --> A_u            
     e( 45 - 46) =     43.44826  eV     2   -->   2 A_u            
     e( 47 - 48) =     50.83875  eV     2   -->   2 A_u            
     e( 49 - 49) =     50.84103  eV     1   --> A_u            
     e( 50 - 50) =     51.05356  eV     1   --> A_g            
     e( 51 - 51) =     54.81608  eV     1   --> A_g            
     e( 52 - 52) =     54.81645  eV     1   --> A_g            
     e( 53 - 53) =     56.73995  eV     1   --> A_u            
     e( 54 - 54) =     56.89605  eV     1   --> A_g            
     e( 55 - 55) =     58.96072  eV     1   --> A_u            
     e( 56 - 56) =     58.96085  eV     1   --> A_u            
     e( 57 - 58) =     65.69410  eV     2   -->   2 A_g            
     e( 59 - 59) =     67.60532  eV     1   --> A_u            
     e( 60 - 60) =     68.06007  eV     1   --> A_u            
     e( 61 - 62) =     68.06259  eV     2   -->   2 A_u            
     e( 63 - 64) =     70.91167  eV     2   -->   2 A_g            
     e( 65 - 65) =     70.97735  eV     1   --> A_g            
     e( 66 - 67) =     70.98111  eV     2   -->   2 A_g            
     e( 68 - 68) =     72.36750  eV     1   --> A_g            
     e( 69 - 69) =     72.53305  eV     1   --> A_u            
     e( 70 - 70) =     72.71460  eV     1   --> A_u            
     e( 71 - 72) =     73.61177  eV     2   -->   2 A_u            
     e( 73 - 73) =     74.23530  eV     1   --> A_g            
     e( 74 - 74) =     77.10471  eV     1   --> A_g            
     e( 75 - 76) =     80.23745  eV     2   -->   2 A_g            
     e( 77 - 77) =     80.97750  eV     1   --> A_g            
     e( 78 - 79) =     82.65084  eV     2   -->   2 A_u            
     e( 80 - 80) =     87.97666  eV     1   --> A_u            
     e( 81 - 82) =     87.97725  eV     2   -->   2 A_u            
     e( 83 - 83) =     89.31616  eV     1   --> A_u            
     e( 84 - 84) =     89.92250  eV     1   --> A_g            
     e( 85 - 85) =     89.92262  eV     1   --> A_g            
     e( 86 - 87) =     90.97008  eV     2   -->   2 A_u            
     e( 88 - 88) =     91.03205  eV     1   --> A_u            
     e( 89 - 89) =     92.83646  eV     1   --> A_g            
     e( 90 - 90) =     93.16878  eV     1   --> A_u            
     e( 91 - 91) =     93.36755  eV     1   --> A_u            
     e( 92 - 92) =     93.36772  eV     1   --> A_u            
     e( 93 - 93) =     93.37687  eV     1   --> A_u            
     e( 94 - 94) =     93.62010  eV     1   --> A_u            
     e( 95 - 95) =     93.62026  eV     1   --> A_u            
     e( 96 - 97) =     93.63483  eV     2   -->   2 A_g            
     e( 98 - 99) =     94.98622  eV     2   -->   2 A_g            
     e(100 -100) =     94.98658  eV     1   --> A_g            

 **************************************************************************
 
     BANDS        :    42.01s CPU        51.58s WALL

 
   This run was terminated on:  21:36:50   3Jan2020            

=------------------------------------------------------------------------------=
   JOB DONE.
=------------------------------------------------------------------------------=
IPL WARN> ipl_option_omp: wrong omp option 
