
     Program BANDS v.6.1 (svn rev. 13369) starts on  3Jan2020 at 20:45:19 

     This program is part of the open-source Quantum ESPRESSO suite
     for quantum simulation of materials; please cite
         "P. Giannozzi et al., J. Phys.:Condens. Matter 21 395502 (2009);
          URL http://www.quantum-espresso.org", 
     in publications or presentations arising from this work. More details at
     http://www.quantum-espresso.org/quote

     Parallel version (MPI), running on    40 processors
     R & G space division:  proc/nbgrp/npool/nimage =      40

     Reading data from directory:
     ./outdir/NiO.save

   Info: using nr1, nr2, nr3 values from input

   Info: using nr1, nr2, nr3 values from input

     IMPORTANT: XC functional enforced from input :
     Exchange-correlation      =  SLA  PW   PBX  PBC ( 1  4  3  4 0 0)
     Any further DFT definition will be discarded
     Please, verify this is what you really want

               file Ni.pbe-spn-kjpaw_psl.1.0.0.UPF: wavefunction(s)  3P 3D renormalized
               file Ni.pbe-spn-kjpaw_psl.1.0.0.UPF: wavefunction(s)  3P 3D renormalized
               file O.pbe-n-kjpaw_psl.1.0.0.UPF: wavefunction(s)  2S 2P renormalized
 
     Parallelization info
     --------------------
     sticks:   dense  smooth     PW     G-vecs:    dense   smooth      PW
     Min          82      82     22                 2333     2333     341
     Max          83      83     23                 2335     2335     344
     Sum        3287    3287    911                93351    93351   13705
 
     Generating pointlists ...
     new r_m :   0.1684 (alat units)  1.6253 (a.u.) for type    1
     new r_m :   0.1684 (alat units)  1.6253 (a.u.) for type    2
     new r_m :   0.1684 (alat units)  1.6253 (a.u.) for type    3
     high-symmetry point:  0.0000 0.0000 0.0000   x coordinate   0.0000
     high-symmetry point:  0.0000-0.9045-0.5539   x coordinate   1.0607
     high-symmetry point: -0.1875-0.6219-1.0155   x coordinate   1.6335
     high-symmetry point: -0.3438-0.1036-1.0155   x coordinate   2.1747
     high-symmetry point:  0.0000 0.0000 0.0000   x coordinate   3.2519
     high-symmetry point: -0.5000-0.1508-0.0923   x coordinate   3.7822
     high-symmetry point: -0.1875-0.9045-0.5539   x coordinate   4.7197
     high-symmetry point: -0.1875-0.6219-1.0155   x coordinate   5.2609
     high-symmetry point: -0.5000-0.1508-0.0923   x coordinate   6.3435
     high-symmetry point: -0.3438-0.1036-1.0155   x coordinate   7.2810
     high-symmetry point: -0.1875-0.9045-0.5539   x coordinate   8.2185
     high-symmetry point:  0.0000-0.9045-0.5539   x coordinate   8.4060
     high-symmetry point:  0.0000 0.0000 0.0000   x coordinate   9.4666
     high-symmetry point:  0.0000 0.0000-1.0155   x coordinate  10.4821
     high-symmetry point:  0.0000-0.6219-1.0155   x coordinate  11.1040
     high-symmetry point:  0.1875-0.6219-1.0155   x coordinate  11.2915
     high-symmetry point:  0.0000 0.0000 0.0000   x coordinate  12.4970

     Plottable bands (eV) written to file NiO.bands.dat.gnu
     Bands written to file NiO.bands.dat

 **************************************************************************

                    xk=(   0.00000,   0.00000,   0.00000  )

     point group C_i (-1)   
     there are  2 classes
     the character table:

       E     i    
A_g    1.00  1.00
A_u    1.00 -1.00

     the symmetry operations in each class and the name of the first element:

     E        1
                                                                 
     i        2
                                                                 

     Band symmetry, C_i (-1)    point group:

     e(  1 -  1) =    -90.78143  eV     1   --> A_g            
     e(  2 -  2) =    -88.59968  eV     1   --> A_g            
     e(  3 -  3) =    -51.09943  eV     1   --> A_u            
     e(  4 -  4) =    -51.08492  eV     1   --> A_u            
     e(  5 -  5) =    -51.08394  eV     1   --> A_u            
     e(  6 -  6) =    -48.97058  eV     1   --> A_u            
     e(  7 -  7) =    -48.95524  eV     1   --> A_u            
     e(  8 -  8) =    -48.95506  eV     1   --> A_u            
     e(  9 -  9) =     -5.46873  eV     1   --> A_g            
     e( 10 - 10) =     -3.98253  eV     1   --> A_u            
     e( 11 - 11) =      2.11745  eV     1   --> A_g            
     e( 12 - 12) =      5.37710  eV     1   --> A_g            
     e( 13 - 13) =      5.37761  eV     1   --> A_g            
     e( 14 - 14) =      8.00004  eV     1   --> A_g            
     e( 15 - 15) =      8.00146  eV     1   --> A_g            
     e( 16 - 16) =      8.13299  eV     1   --> A_g            
     e( 17 - 17) =      9.02046  eV     1   --> A_g            
     e( 18 - 18) =      9.02384  eV     1   --> A_g            
     e( 19 - 19) =      9.44207  eV     1   --> A_u            
     e( 20 - 21) =      9.44674  eV     2   -->   2 A_u            
     e( 22 - 22) =     10.16920  eV     1   --> A_g            
     e( 23 - 23) =     10.86336  eV     1   --> A_g            
     e( 24 - 24) =     10.86640  eV     1   --> A_g            
     e( 25 - 25) =     16.18978  eV     1   --> A_g            
     e( 26 - 26) =     16.78910  eV     1   --> A_g            
     e( 27 - 27) =     16.79018  eV     1   --> A_g            
     e( 28 - 28) =     20.10612  eV     1   --> A_u            
     e( 29 - 29) =     24.67994  eV     1   --> A_g            
     e( 30 - 30) =     28.53173  eV     1   --> A_u            
     e( 31 - 31) =     28.53196  eV     1   --> A_u            
     e( 32 - 32) =     32.20908  eV     1   --> A_u            
     e( 33 - 33) =     33.36298  eV     1   --> A_g            
     e( 34 - 34) =     33.36313  eV     1   --> A_g            
     e( 35 - 35) =     33.36330  eV     1   --> A_g            
     e( 36 - 36) =     35.72773  eV     1   --> A_g            
     e( 37 - 37) =     36.84130  eV     1   --> A_u            
     e( 38 - 38) =     36.84924  eV     1   --> A_u            
     e( 39 - 39) =     36.84945  eV     1   --> A_u            
     e( 40 - 40) =     40.19975  eV     1   --> A_g            
     e( 41 - 41) =     40.20024  eV     1   --> A_g            
     e( 42 - 42) =     40.57894  eV     1   --> A_g            
     e( 43 - 43) =     40.57947  eV     1   --> A_g            
     e( 44 - 44) =     41.26655  eV     1   --> A_u            
     e( 45 - 46) =     43.44519  eV     2   -->   2 A_u            
     e( 47 - 48) =     50.82532  eV     2   -->   2 A_u            
     e( 49 - 49) =     50.82777  eV     1   --> A_u            
     e( 50 - 50) =     51.06537  eV     1   --> A_g            
     e( 51 - 51) =     54.81915  eV     1   --> A_g            
     e( 52 - 52) =     54.81948  eV     1   --> A_g            
     e( 53 - 53) =     56.73639  eV     1   --> A_u            
     e( 54 - 54) =     56.89567  eV     1   --> A_g            
     e( 55 - 55) =     58.96390  eV     1   --> A_u            
     e( 56 - 56) =     58.96401  eV     1   --> A_u            
     e( 57 - 58) =     65.69118  eV     2   -->   2 A_g            
     e( 59 - 59) =     67.61610  eV     1   --> A_u            
     e( 60 - 60) =     68.06505  eV     1   --> A_u            
     e( 61 - 62) =     68.06736  eV     2   -->   2 A_u            
     e( 63 - 64) =     70.90800  eV     2   -->   2 A_g            
     e( 65 - 65) =     70.97489  eV     1   --> A_g            
     e( 66 - 67) =     70.97837  eV     2   -->   2 A_g            
     e( 68 - 68) =     72.38146  eV     1   --> A_g            
     e( 69 - 69) =     72.54358  eV     1   --> A_u            
     e( 70 - 70) =     72.70605  eV     1   --> A_u            
     e( 71 - 72) =     73.60308  eV     2   -->   2 A_u            
     e( 73 - 73) =     74.22517  eV     1   --> A_g            
     e( 74 - 74) =     77.09920  eV     1   --> A_g            
     e( 75 - 76) =     80.24554  eV     2   -->   2 A_g            
     e( 77 - 77) =     80.96630  eV     1   --> A_g            
     e( 78 - 79) =     82.65245  eV     2   -->   2 A_u            
     e( 80 - 80) =     87.97823  eV     1   --> A_u            
     e( 81 - 82) =     87.97884  eV     2   -->   2 A_u            
     e( 83 - 83) =     89.32558  eV     1   --> A_u            
     e( 84 - 84) =     89.92458  eV     1   --> A_g            
     e( 85 - 85) =     89.92469  eV     1   --> A_g            
     e( 86 - 87) =     90.97203  eV     2   -->   2 A_u            
     e( 88 - 88) =     91.03218  eV     1   --> A_u            
     e( 89 - 89) =     92.83132  eV     1   --> A_g            
     e( 90 - 90) =     93.18427  eV     1   --> A_u            
     e( 91 - 91) =     93.36796  eV     1   --> A_u            
     e( 92 - 92) =     93.36811  eV     1   --> A_u            
     e( 93 - 93) =     93.37719  eV     1   --> A_u            
     e( 94 - 94) =     93.61693  eV     1   --> A_u            
     e( 95 - 95) =     93.61707  eV     1   --> A_u            
     e( 96 - 97) =     93.63511  eV     2   -->   2 A_g            
     e( 98 - 99) =     94.98218  eV     2   -->   2 A_g            
     e(100 -100) =     94.98259  eV     1   --> A_g            

 **************************************************************************

 **************************************************************************

                    xk=(   0.00000,  -0.02154,  -0.01319  )

     point group C_1 (1)    
     there are  1 classes
     the character table:

       E    
A      1.00

     the symmetry operations in each class and the name of the first element:

     E        1
                                                                 

     Band symmetry, C_1 (1)     point group:

     e(  1 -  1) =    -90.78144  eV     1   --> A              
     e(  2 -  2) =    -88.59971  eV     1   --> A              
     e(  3 -  3) =    -51.09945  eV     1   --> A              
     e(  4 -  4) =    -51.08495  eV     1   --> A              
     e(  5 -  5) =    -51.08399  eV     1   --> A              
     e(  6 -  6) =    -48.97061  eV     1   --> A              
     e(  7 -  7) =    -48.95528  eV     1   --> A              
     e(  8 -  8) =    -48.95511  eV     1   --> A              
     e(  9 -  9) =     -5.46796  eV     1   --> A              
     e( 10 - 10) =     -3.98321  eV     1   --> A              
     e( 11 - 11) =      2.12234  eV     1   --> A              
     e( 12 - 12) =      5.37616  eV     1   --> A              
     e( 13 - 13) =      5.37815  eV     1   --> A              
     e( 14 - 14) =      7.99617  eV     1   --> A              
     e( 15 - 15) =      7.99860  eV     1   --> A              
     e( 16 - 16) =      8.13155  eV     1   --> A              
     e( 17 - 17) =      9.01044  eV     1   --> A              
     e( 18 - 18) =      9.02078  eV     1   --> A              
     e( 19 - 19) =      9.44285  eV     1   --> A              
     e( 20 - 20) =      9.44743  eV     1   --> A              
     e( 21 - 21) =      9.44955  eV     1   --> A              
     e( 22 - 22) =     10.16866  eV     1   --> A              
     e( 23 - 23) =     10.86312  eV     1   --> A              
     e( 24 - 24) =     10.86774  eV     1   --> A              
     e( 25 - 25) =     16.20017  eV     1   --> A              
     e( 26 - 26) =     16.78784  eV     1   --> A              
     e( 27 - 27) =     16.78882  eV     1   --> A              
     e( 28 - 28) =     20.11564  eV     1   --> A              
     e( 29 - 29) =     24.67771  eV     1   --> A              
     e( 30 - 30) =     28.51795  eV     1   --> A              
     e( 31 - 31) =     28.53638  eV     1   --> A              
     e( 32 - 32) =     32.14320  eV     1   --> A              
     e( 33 - 33) =     33.35907  eV     1   --> A              
     e( 34 - 34) =     33.35927  eV     1   --> A              
     e( 35 - 35) =     33.41287  eV     1   --> A              
     e( 36 - 36) =     35.74849  eV     1   --> A              
     e( 37 - 37) =     36.82382  eV     1   --> A              
     e( 38 - 38) =     36.83096  eV     1   --> A              
     e( 39 - 39) =     36.86907  eV     1   --> A              
     e( 40 - 40) =     40.13318  eV     1   --> A              
     e( 41 - 41) =     40.20537  eV     1   --> A              
     e( 42 - 42) =     40.59386  eV     1   --> A              
     e( 43 - 43) =     40.60420  eV     1   --> A              
     e( 44 - 44) =     41.32941  eV     1   --> A              
     e( 45 - 45) =     43.45135  eV     1   --> A              
     e( 46 - 46) =     43.46770  eV     1   --> A              
     e( 47 - 47) =     50.72276  eV     1   --> A              
     e( 48 - 48) =     50.82490  eV     1   --> A              
     e( 49 - 49) =     50.82703  eV     1   --> A              
     e( 50 - 50) =     51.17246  eV     1   --> A              
     e( 51 - 51) =     54.81129  eV     1   --> A              
     e( 52 - 52) =     54.81306  eV     1   --> A              
     e( 53 - 53) =     56.59419  eV     1   --> A              
     e( 54 - 54) =     57.04916  eV     1   --> A              
     e( 55 - 55) =     58.95360  eV     1   --> A              
     e( 56 - 56) =     58.97142  eV     1   --> A              
     e( 57 - 57) =     65.61840  eV     1   --> A              
     e( 58 - 58) =     65.70364  eV     1   --> A              
     e( 59 - 59) =     67.67079  eV     1   --> A              
     e( 60 - 60) =     67.94271  eV     1   --> A              
     e( 61 - 61) =     67.94476  eV     1   --> A              
     e( 62 - 62) =     68.07056  eV     1   --> A              
     e( 63 - 63) =     70.93986  eV     1   --> A              
     e( 64 - 64) =     70.94152  eV     1   --> A              
     e( 65 - 65) =     70.97832  eV     1   --> A              
     e( 66 - 66) =     71.07539  eV     1   --> A              
     e( 67 - 67) =     71.07680  eV     1   --> A              
     e( 68 - 68) =     72.38866  eV     1   --> A              
     e( 69 - 69) =     72.50474  eV     1   --> A              
     e( 70 - 70) =     72.72017  eV     1   --> A              
     e( 71 - 71) =     73.50200  eV     1   --> A              
     e( 72 - 72) =     73.61503  eV     1   --> A              
     e( 73 - 73) =     74.22704  eV     1   --> A              
     e( 74 - 74) =     77.22050  eV     1   --> A              
     e( 75 - 75) =     80.16123  eV     1   --> A              
     e( 76 - 76) =     80.20498  eV     1   --> A              
     e( 77 - 77) =     80.91486  eV     1   --> A              
     e( 78 - 78) =     82.74139  eV     1   --> A              
     e( 79 - 79) =     82.77779  eV     1   --> A              
     e( 80 - 80) =     87.95746  eV     1   --> A              
     e( 81 - 81) =     87.95889  eV     1   --> A              
     e( 82 - 82) =     87.95948  eV     1   --> A              
     e( 83 - 83) =     89.03060  eV     1   --> A              
     e( 84 - 84) =     89.88729  eV     1   --> A              
     e( 85 - 85) =     90.15224  eV     1   --> A              
     e( 86 - 86) =     90.88722  eV     1   --> A              
     e( 87 - 87) =     90.92409  eV     1   --> A              
     e( 88 - 88) =     90.96005  eV     1   --> A              
     e( 89 - 89) =     92.62485  eV     1   --> A              
     e( 90 - 90) =     93.14467  eV     1   --> A              
     e( 91 - 91) =     93.17942  eV     1   --> A              
     e( 92 - 92) =     93.18043  eV     1   --> A              
     e( 93 - 93) =     93.21416  eV     1   --> A              
     e( 94 - 94) =     93.64454  eV     1   --> A              
     e( 95 - 95) =     93.71054  eV     1   --> A              
     e( 96 - 96) =     93.72039  eV     1   --> A              
     e( 97 - 97) =     93.85204  eV     1   --> A              
     e( 98 - 98) =     95.01610  eV     1   --> A              
     e( 99 - 99) =     95.09165  eV     1   --> A              
     e(100 -100) =     95.09186  eV     1   --> A              

 **************************************************************************

 **************************************************************************

                    xk=(   0.00000,  -0.04307,  -0.02638  )

     Band symmetry, C_1 (1)     point group:

     e(  1 -  1) =    -90.78145  eV     1   --> A              
     e(  2 -  2) =    -88.59980  eV     1   --> A              
     e(  3 -  3) =    -51.09950  eV     1   --> A              
     e(  4 -  4) =    -51.08504  eV     1   --> A              
     e(  5 -  5) =    -51.08412  eV     1   --> A              
     e(  6 -  6) =    -48.97066  eV     1   --> A              
     e(  7 -  7) =    -48.95542  eV     1   --> A              
     e(  8 -  8) =    -48.95520  eV     1   --> A              
     e(  9 -  9) =     -5.46566  eV     1   --> A              
     e( 10 - 10) =     -3.98526  eV     1   --> A              
     e( 11 - 11) =      2.13699  eV     1   --> A              
     e( 12 - 12) =      5.37304  eV     1   --> A              
     e( 13 - 13) =      5.38006  eV     1   --> A              
     e( 14 - 14) =      7.98126  eV     1   --> A              
     e( 15 - 15) =      7.99272  eV     1   --> A              
     e( 16 - 16) =      8.12765  eV     1   --> A              
     e( 17 - 17) =      8.97569  eV     1   --> A              
     e( 18 - 18) =      9.01868  eV     1   --> A              
     e( 19 - 19) =      9.43187  eV     1   --> A              
     e( 20 - 20) =      9.44936  eV     1   --> A              
     e( 21 - 21) =      9.46937  eV     1   --> A              
     e( 22 - 22) =     10.16705  eV     1   --> A              
     e( 23 - 23) =     10.86176  eV     1   --> A              
     e( 24 - 24) =     10.87239  eV     1   --> A              
     e( 25 - 25) =     16.23112  eV     1   --> A              
     e( 26 - 26) =     16.78317  eV     1   --> A              
     e( 27 - 27) =     16.78576  eV     1   --> A              
     e( 28 - 28) =     20.14401  eV     1   --> A              
     e( 29 - 29) =     24.67106  eV     1   --> A              
     e( 30 - 30) =     28.47675  eV     1   --> A              
     e( 31 - 31) =     28.55010  eV     1   --> A              
     e( 32 - 32) =     31.97290  eV     1   --> A              
     e( 33 - 33) =     33.34706  eV     1   --> A              
     e( 34 - 34) =     33.34728  eV     1   --> A              
     e( 35 - 35) =     33.53441  eV     1   --> A              
     e( 36 - 36) =     35.80974  eV     1   --> A              
     e( 37 - 37) =     36.77172  eV     1   --> A              
     e( 38 - 38) =     36.77842  eV     1   --> A              
     e( 39 - 39) =     36.93022  eV     1   --> A              
     e( 40 - 40) =     39.95174  eV     1   --> A              
     e( 41 - 41) =     40.21788  eV     1   --> A              
     e( 42 - 42) =     40.66240  eV     1   --> A              
     e( 43 - 43) =     40.68064  eV     1   --> A              
     e( 44 - 44) =     41.47294  eV     1   --> A              
     e( 45 - 45) =     43.46961  eV     1   --> A              
     e( 46 - 46) =     43.53469  eV     1   --> A              
     e( 47 - 47) =     50.55339  eV     1   --> A              
     e( 48 - 48) =     50.82345  eV     1   --> A              
     e( 49 - 49) =     50.82558  eV     1   --> A              
     e( 50 - 50) =     51.35461  eV     1   --> A              
     e( 51 - 51) =     54.78752  eV     1   --> A              
     e( 52 - 52) =     54.79457  eV     1   --> A              
     e( 53 - 53) =     56.40682  eV     1   --> A              
     e( 54 - 54) =     57.26913  eV     1   --> A              
     e( 55 - 55) =     58.92297  eV     1   --> A              
     e( 56 - 56) =     58.99455  eV     1   --> A              
     e( 57 - 57) =     65.42254  eV     1   --> A              
     e( 58 - 58) =     65.73978  eV     1   --> A              
     e( 59 - 59) =     67.62538  eV     1   --> A              
     e( 60 - 60) =     67.62699  eV     1   --> A              
     e( 61 - 61) =     67.81278  eV     1   --> A              
     e( 62 - 62) =     68.08087  eV     1   --> A              
     e( 63 - 63) =     70.95242  eV     1   --> A              
     e( 64 - 64) =     70.95451  eV     1   --> A              
     e( 65 - 65) =     70.97912  eV     1   --> A              
     e( 66 - 66) =     71.40804  eV     1   --> A              
     e( 67 - 67) =     71.40886  eV     1   --> A              
     e( 68 - 68) =     72.38546  eV     1   --> A              
     e( 69 - 69) =     72.41200  eV     1   --> A              
     e( 70 - 70) =     72.75967  eV     1   --> A              
     e( 71 - 71) =     73.24093  eV     1   --> A              
     e( 72 - 72) =     73.65128  eV     1   --> A              
     e( 73 - 73) =     74.23257  eV     1   --> A              
     e( 74 - 74) =     77.54624  eV     1   --> A              
     e( 75 - 75) =     79.91057  eV     1   --> A              
     e( 76 - 76) =     80.10218  eV     1   --> A              
     e( 77 - 77) =     80.82754  eV     1   --> A              
     e( 78 - 78) =     82.98882  eV     1   --> A              
     e( 79 - 79) =     83.08430  eV     1   --> A              
     e( 80 - 80) =     87.89166  eV     1   --> A              
     e( 81 - 81) =     87.89861  eV     1   --> A              
     e( 82 - 82) =     87.89955  eV     1   --> A              
     e( 83 - 83) =     88.51491  eV     1   --> A              
     e( 84 - 84) =     89.78029  eV     1   --> A              
     e( 85 - 85) =     90.39670  eV     1   --> A              
     e( 86 - 86) =     90.65042  eV     1   --> A              
     e( 87 - 87) =     90.78383  eV     1   --> A              
     e( 88 - 88) =     90.82001  eV     1   --> A              
     e( 89 - 89) =     92.30116  eV     1   --> A              
     e( 90 - 90) =     92.81737  eV     1   --> A              
     e( 91 - 91) =     92.81900  eV     1   --> A              
     e( 92 - 92) =     92.83514  eV     1   --> A              
     e( 93 - 93) =     93.02983  eV     1   --> A              
     e( 94 - 94) =     93.73131  eV     1   --> A              
     e( 95 - 95) =     93.78814  eV     1   --> A              
     e( 96 - 96) =     93.82725  eV     1   --> A              
     e( 97 - 97) =     94.29327  eV     1   --> A              
     e( 98 - 98) =     95.11027  eV     1   --> A              
     e( 99 - 99) =     95.34706  eV     1   --> A              
     e(100 -100) =     95.34768  eV     1   --> A              

 **************************************************************************

 **************************************************************************

                    xk=(   0.00000,  -0.06461,  -0.03957  )

     Band symmetry, C_1 (1)     point group:

     e(  1 -  1) =    -90.78148  eV     1   --> A              
     e(  2 -  2) =    -88.59995  eV     1   --> A              
     e(  3 -  3) =    -51.09959  eV     1   --> A              
     e(  4 -  4) =    -51.08518  eV     1   --> A              
     e(  5 -  5) =    -51.08433  eV     1   --> A              
     e(  6 -  6) =    -48.97075  eV     1   --> A              
     e(  7 -  7) =    -48.95570  eV     1   --> A              
     e(  8 -  8) =    -48.95531  eV     1   --> A              
     e(  9 -  9) =     -5.46179  eV     1   --> A              
     e( 10 - 10) =     -3.98862  eV     1   --> A              
     e( 11 - 11) =      2.16130  eV     1   --> A              
     e( 12 - 12) =      5.36788  eV     1   --> A              
     e( 13 - 13) =      5.38326  eV     1   --> A              
     e( 14 - 14) =      7.95437  eV     1   --> A              
     e( 15 - 15) =      7.98319  eV     1   --> A              
     e( 16 - 16) =      8.12228  eV     1   --> A              
     e( 17 - 17) =      8.92331  eV     1   --> A              
     e( 18 - 18) =      9.01566  eV     1   --> A              
     e( 19 - 19) =      9.41468  eV     1   --> A              
     e( 20 - 20) =      9.45243  eV     1   --> A              
     e( 21 - 21) =      9.49707  eV     1   --> A              
     e( 22 - 22) =     10.16436  eV     1   --> A              
     e( 23 - 23) =     10.85933  eV     1   --> A              
     e( 24 - 24) =     10.88026  eV     1   --> A              
     e( 25 - 25) =     16.28193  eV     1   --> A              
     e( 26 - 26) =     16.77535  eV     1   --> A              
     e( 27 - 27) =     16.78117  eV     1   --> A              
     e( 28 - 28) =     20.19065  eV     1   --> A              
     e( 29 - 29) =     24.65999  eV     1   --> A              
     e( 30 - 30) =     28.41009  eV     1   --> A              
     e( 31 - 31) =     28.57284  eV     1   --> A              
     e( 32 - 32) =     31.74203  eV     1   --> A              
     e( 33 - 33) =     33.32621  eV     1   --> A              
     e( 34 - 34) =     33.32648  eV     1   --> A              
     e( 35 - 35) =     33.68417  eV     1   --> A              
     e( 36 - 36) =     35.90839  eV     1   --> A              
     e( 37 - 37) =     36.69211  eV     1   --> A              
     e( 38 - 38) =     36.69827  eV     1   --> A              
     e( 39 - 39) =     37.03222  eV     1   --> A              
     e( 40 - 40) =     39.70532  eV     1   --> A              
     e( 41 - 41) =     40.23221  eV     1   --> A              
     e( 42 - 42) =     40.79143  eV     1   --> A              
     e( 43 - 43) =     40.80802  eV     1   --> A              
     e( 44 - 44) =     41.63790  eV     1   --> A              
     e( 45 - 45) =     43.49987  eV     1   --> A              
     e( 46 - 46) =     43.64428  eV     1   --> A              
     e( 47 - 47) =     50.37461  eV     1   --> A              
     e( 48 - 48) =     50.82103  eV     1   --> A              
     e( 49 - 49) =     50.82316  eV     1   --> A              
     e( 50 - 50) =     51.55483  eV     1   --> A              
     e( 51 - 51) =     54.74958  eV     1   --> A              
     e( 52 - 52) =     54.76399  eV     1   --> A              
     e( 53 - 53) =     56.22872  eV     1   --> A              
     e( 54 - 54) =     57.49717  eV     1   --> A              
     e( 55 - 55) =     58.87299  eV     1   --> A              
     e( 56 - 56) =     59.03602  eV     1   --> A              
     e( 57 - 57) =     65.14582  eV     1   --> A              
     e( 58 - 58) =     65.79581  eV     1   --> A              
     e( 59 - 59) =     67.19835  eV     1   --> A              
     e( 60 - 60) =     67.19968  eV     1   --> A              
     e( 61 - 61) =     67.99960  eV     1   --> A              
     e( 62 - 62) =     68.09805  eV     1   --> A              
     e( 63 - 63) =     70.96409  eV     1   --> A              
     e( 64 - 64) =     70.96597  eV     1   --> A              
     e( 65 - 65) =     70.98009  eV     1   --> A              
     e( 66 - 66) =     71.86814  eV     1   --> A              
     e( 67 - 67) =     71.86899  eV     1   --> A              
     e( 68 - 68) =     72.17901  eV     1   --> A              
     e( 69 - 69) =     72.45526  eV     1   --> A              
     e( 70 - 70) =     72.81774  eV     1   --> A              
     e( 71 - 71) =     72.90497  eV     1   --> A              
     e( 72 - 72) =     73.71334  eV     1   --> A              
     e( 73 - 73) =     74.24147  eV     1   --> A              
     e( 74 - 74) =     78.00319  eV     1   --> A              
     e( 75 - 75) =     79.53727  eV     1   --> A              
     e( 76 - 76) =     79.97568  eV     1   --> A              
     e( 77 - 77) =     80.76099  eV     1   --> A              
     e( 78 - 78) =     83.35570  eV     1   --> A              
     e( 79 - 79) =     83.47109  eV     1   --> A              
     e( 80 - 80) =     87.77386  eV     1   --> A              
     e( 81 - 81) =     87.79025  eV     1   --> A              
     e( 82 - 82) =     87.79332  eV     1   --> A              
     e( 83 - 83) =     87.94117  eV     1   --> A              
     e( 84 - 84) =     89.61542  eV     1   --> A              
     e( 85 - 85) =     90.22685  eV     1   --> A              
     e( 86 - 86) =     90.30436  eV     1   --> A              
     e( 87 - 87) =     90.63227  eV     1   --> A              
     e( 88 - 88) =     90.80021  eV     1   --> A              
     e( 89 - 89) =     92.09563  eV     1   --> A              
     e( 90 - 90) =     92.35622  eV     1   --> A              
     e( 91 - 91) =     92.40859  eV     1   --> A              
     e( 92 - 92) =     92.41102  eV     1   --> A              
     e( 93 - 93) =     92.84993  eV     1   --> A              
     e( 94 - 94) =     93.81748  eV     1   --> A              
     e( 95 - 95) =     93.84423  eV     1   --> A              
     e( 96 - 96) =     93.98378  eV     1   --> A              
     e( 97 - 97) =     94.77034  eV     1   --> A              
     e( 98 - 98) =     95.24762  eV     1   --> A              
     e( 99 - 99) =     95.67117  eV     1   --> A              
     e(100 -100) =     95.67316  eV     1   --> A              

 **************************************************************************

 **************************************************************************

                    xk=(   0.00000,  -0.08615,  -0.05275  )

     Band symmetry, C_1 (1)     point group:

     e(  1 -  1) =    -90.78152  eV     1   --> A              
     e(  2 -  2) =    -88.60014  eV     1   --> A              
     e(  3 -  3) =    -51.09971  eV     1   --> A              
     e(  4 -  4) =    -51.08542  eV     1   --> A              
     e(  5 -  5) =    -51.08458  eV     1   --> A              
     e(  6 -  6) =    -48.97087  eV     1   --> A              
     e(  7 -  7) =    -48.95610  eV     1   --> A              
     e(  8 -  8) =    -48.95545  eV     1   --> A              
     e(  9 -  9) =     -5.45629  eV     1   --> A              
     e( 10 - 10) =     -3.99325  eV     1   --> A              
     e( 11 - 11) =      2.19511  eV     1   --> A              
     e( 12 - 12) =      5.36074  eV     1   --> A              
     e( 13 - 13) =      5.38768  eV     1   --> A              
     e( 14 - 14) =      7.91361  eV     1   --> A              
     e( 15 - 15) =      7.97000  eV     1   --> A              
     e( 16 - 16) =      8.11641  eV     1   --> A              
     e( 17 - 17) =      8.85821  eV     1   --> A              
     e( 18 - 18) =      9.01195  eV     1   --> A              
     e( 19 - 19) =      9.39284  eV     1   --> A              
     e( 20 - 20) =      9.45642  eV     1   --> A              
     e( 21 - 21) =      9.52842  eV     1   --> A              
     e( 22 - 22) =     10.16056  eV     1   --> A              
     e( 23 - 23) =     10.85611  eV     1   --> A              
     e( 24 - 24) =     10.89097  eV     1   --> A              
     e( 25 - 25) =     16.35150  eV     1   --> A              
     e( 26 - 26) =     16.76512  eV     1   --> A              
     e( 27 - 27) =     16.77500  eV     1   --> A              
     e( 28 - 28) =     20.25463  eV     1   --> A              
     e( 29 - 29) =     24.64454  eV     1   --> A              
     e( 30 - 30) =     28.32071  eV     1   --> A              
     e( 31 - 31) =     28.60442  eV     1   --> A              
     e( 32 - 32) =     31.47816  eV     1   --> A              
     e( 33 - 33) =     33.29535  eV     1   --> A              
     e( 34 - 34) =     33.29571  eV     1   --> A              
     e( 35 - 35) =     33.83524  eV     1   --> A              
     e( 36 - 36) =     36.03898  eV     1   --> A              
     e( 37 - 37) =     36.59399  eV     1   --> A              
     e( 38 - 38) =     36.59940  eV     1   --> A              
     e( 39 - 39) =     37.17445  eV     1   --> A              
     e( 40 - 40) =     39.43193  eV     1   --> A              
     e( 41 - 41) =     40.24582  eV     1   --> A              
     e( 42 - 42) =     40.96876  eV     1   --> A              
     e( 43 - 43) =     40.98131  eV     1   --> A              
     e( 44 - 44) =     41.79697  eV     1   --> A              
     e( 45 - 45) =     43.54189  eV     1   --> A              
     e( 46 - 46) =     43.79230  eV     1   --> A              
     e( 47 - 47) =     50.19219  eV     1   --> A              
     e( 48 - 48) =     50.81763  eV     1   --> A              
     e( 49 - 49) =     50.81975  eV     1   --> A              
     e( 50 - 50) =     51.76749  eV     1   --> A              
     e( 51 - 51) =     54.70000  eV     1   --> A              
     e( 52 - 52) =     54.72169  eV     1   --> A              
     e( 53 - 53) =     56.06309  eV     1   --> A              
     e( 54 - 54) =     57.72293  eV     1   --> A              
     e( 55 - 55) =     58.80510  eV     1   --> A              
     e( 56 - 56) =     59.10080  eV     1   --> A              
     e( 57 - 57) =     64.82125  eV     1   --> A              
     e( 58 - 58) =     65.86504  eV     1   --> A              
     e( 59 - 59) =     66.71818  eV     1   --> A              
     e( 60 - 60) =     66.71873  eV     1   --> A              
     e( 61 - 61) =     68.12210  eV     1   --> A              
     e( 62 - 62) =     68.19963  eV     1   --> A              
     e( 63 - 63) =     70.97911  eV     1   --> A              
     e( 64 - 64) =     70.98045  eV     1   --> A              
     e( 65 - 65) =     70.98083  eV     1   --> A              
     e( 66 - 66) =     71.86576  eV     1   --> A              
     e( 67 - 67) =     72.38553  eV     1   --> A              
     e( 68 - 68) =     72.40461  eV     1   --> A              
     e( 69 - 69) =     72.53134  eV     1   --> A              
     e( 70 - 70) =     72.56658  eV     1   --> A              
     e( 71 - 71) =     72.88696  eV     1   --> A              
     e( 72 - 72) =     73.80294  eV     1   --> A              
     e( 73 - 73) =     74.25326  eV     1   --> A              
     e( 74 - 74) =     78.52811  eV     1   --> A              
     e( 75 - 75) =     79.10341  eV     1   --> A              
     e( 76 - 76) =     79.86304  eV     1   --> A              
     e( 77 - 77) =     80.70978  eV     1   --> A              
     e( 78 - 78) =     83.80806  eV     1   --> A              
     e( 79 - 79) =     83.88017  eV     1   --> A              
     e( 80 - 80) =     87.31384  eV     1   --> A              
     e( 81 - 81) =     87.61086  eV     1   --> A              
     e( 82 - 82) =     87.62999  eV     1   --> A              
     e( 83 - 83) =     87.63207  eV     1   --> A              
     e( 84 - 84) =     89.40497  eV     1   --> A              
     e( 85 - 85) =     89.83629  eV     1   --> A              
     e( 86 - 86) =     89.90028  eV     1   --> A              
     e( 87 - 87) =     90.41533  eV     1   --> A              
     e( 88 - 88) =     90.72287  eV     1   --> A              
     e( 89 - 89) =     91.83770  eV     1   --> A              
     e( 90 - 90) =     91.99051  eV     1   --> A              
     e( 91 - 91) =     91.99118  eV     1   --> A              
     e( 92 - 92) =     92.13656  eV     1   --> A              
     e( 93 - 93) =     92.61854  eV     1   --> A              
     e( 94 - 94) =     93.87403  eV     1   --> A              
     e( 95 - 95) =     93.88946  eV     1   --> A              
     e( 96 - 96) =     94.21655  eV     1   --> A              
     e( 97 - 97) =     95.23052  eV     1   --> A              
     e( 98 - 98) =     95.42010  eV     1   --> A              
     e( 99 - 99) =     96.04142  eV     1   --> A              
     e(100 -100) =     96.04472  eV     1   --> A              

 **************************************************************************

 **************************************************************************

                    xk=(   0.00000,  -0.10768,  -0.06594  )

     Band symmetry, C_1 (1)     point group:

     e(  1 -  1) =    -90.78157  eV     1   --> A              
     e(  2 -  2) =    -88.60038  eV     1   --> A              
     e(  3 -  3) =    -51.09986  eV     1   --> A              
     e(  4 -  4) =    -51.08578  eV     1   --> A              
     e(  5 -  5) =    -51.08485  eV     1   --> A              
     e(  6 -  6) =    -48.97102  eV     1   --> A              
     e(  7 -  7) =    -48.95663  eV     1   --> A              
     e(  8 -  8) =    -48.95562  eV     1   --> A              
     e(  9 -  9) =     -5.44911  eV     1   --> A              
     e( 10 - 10) =     -3.99908  eV     1   --> A              
     e( 11 - 11) =      2.23821  eV     1   --> A              
     e( 12 - 12) =      5.35172  eV     1   --> A              
     e( 13 - 13) =      5.39327  eV     1   --> A              
     e( 14 - 14) =      7.85721  eV     1   --> A              
     e( 15 - 15) =      7.95333  eV     1   --> A              
     e( 16 - 16) =      8.11050  eV     1   --> A              
     e( 17 - 17) =      8.78424  eV     1   --> A              
     e( 18 - 18) =      9.00791  eV     1   --> A              
     e( 19 - 19) =      9.36811  eV     1   --> A              
     e( 20 - 20) =      9.46112  eV     1   --> A              
     e( 21 - 21) =      9.56061  eV     1   --> A              
     e( 22 - 22) =     10.15565  eV     1   --> A              
     e( 23 - 23) =     10.85237  eV     1   --> A              
     e( 24 - 24) =     10.90417  eV     1   --> A              
     e( 25 - 25) =     16.43844  eV     1   --> A              
     e( 26 - 26) =     16.75317  eV     1   --> A              
     e( 27 - 27) =     16.76740  eV     1   --> A              
     e( 28 - 28) =     20.33474  eV     1   --> A              
     e( 29 - 29) =     24.62476  eV     1   --> A              
     e( 30 - 30) =     28.21196  eV     1   --> A              
     e( 31 - 31) =     28.64457  eV     1   --> A              
     e( 32 - 32) =     31.19553  eV     1   --> A              
     e( 33 - 33) =     33.25294  eV     1   --> A              
     e( 34 - 34) =     33.25344  eV     1   --> A              
     e( 35 - 35) =     33.97492  eV     1   --> A              
     e( 36 - 36) =     36.19281  eV     1   --> A              
     e( 37 - 37) =     36.48707  eV     1   --> A              
     e( 38 - 38) =     36.49121  eV     1   --> A              
     e( 39 - 39) =     37.35546  eV     1   --> A              
     e( 40 - 40) =     39.15383  eV     1   --> A              
     e( 41 - 41) =     40.25889  eV     1   --> A              
     e( 42 - 42) =     41.18345  eV     1   --> A              
     e( 43 - 43) =     41.19255  eV     1   --> A              
     e( 44 - 44) =     41.94178  eV     1   --> A              
     e( 45 - 45) =     43.59531  eV     1   --> A              
     e( 46 - 46) =     43.97203  eV     1   --> A              
     e( 47 - 47) =     50.00657  eV     1   --> A              
     e( 48 - 48) =     50.81324  eV     1   --> A              
     e( 49 - 49) =     50.81536  eV     1   --> A              
     e( 50 - 50) =     51.99243  eV     1   --> A              
     e( 51 - 51) =     54.64214  eV     1   --> A              
     e( 52 - 52) =     54.66815  eV     1   --> A              
     e( 53 - 53) =     55.90966  eV     1   --> A              
     e( 54 - 54) =     57.93607  eV     1   --> A              
     e( 55 - 55) =     58.72096  eV     1   --> A              
     e( 56 - 56) =     59.19643  eV     1   --> A              
     e( 57 - 57) =     64.46921  eV     1   --> A              
     e( 58 - 58) =     65.93519  eV     1   --> A              
     e( 59 - 59) =     66.21342  eV     1   --> A              
     e( 60 - 60) =     66.21709  eV     1   --> A              
     e( 61 - 61) =     68.15300  eV     1   --> A              
     e( 62 - 62) =     68.39459  eV     1   --> A              
     e( 63 - 63) =     70.98029  eV     1   --> A              
     e( 64 - 64) =     70.99799  eV     1   --> A              
     e( 65 - 65) =     70.99860  eV     1   --> A              
     e( 66 - 66) =     71.48190  eV     1   --> A              
     e( 67 - 67) =     72.24796  eV     1   --> A              
     e( 68 - 68) =     72.58571  eV     1   --> A              
     e( 69 - 69) =     72.95137  eV     1   --> A              
     e( 70 - 70) =     72.97520  eV     1   --> A              
     e( 71 - 71) =     72.98938  eV     1   --> A              
     e( 72 - 72) =     73.92103  eV     1   --> A              
     e( 73 - 73) =     74.26723  eV     1   --> A              
     e( 74 - 74) =     78.65003  eV     1   --> A              
     e( 75 - 75) =     79.04974  eV     1   --> A              
     e( 76 - 76) =     79.81961  eV     1   --> A              
     e( 77 - 77) =     80.66242  eV     1   --> A              
     e( 78 - 78) =     84.27837  eV     1   --> A              
     e( 79 - 79) =     84.32278  eV     1   --> A              
     e( 80 - 80) =     86.67952  eV     1   --> A              
     e( 81 - 81) =     87.37906  eV     1   --> A              
     e( 82 - 82) =     87.39322  eV     1   --> A              
     e( 83 - 83) =     87.39420  eV     1   --> A              
     e( 84 - 84) =     89.15544  eV     1   --> A              
     e( 85 - 85) =     89.40864  eV     1   --> A              
     e( 86 - 86) =     89.49135  eV     1   --> A              
     e( 87 - 87) =     90.18015  eV     1   --> A              
     e( 88 - 88) =     90.48970  eV     1   --> A              
     e( 89 - 89) =     91.30331  eV     1   --> A              
     e( 90 - 90) =     91.57794  eV     1   --> A              
     e( 91 - 91) =     91.57942  eV     1   --> A              
     e( 92 - 92) =     92.33562  eV     1   --> A              
     e( 93 - 93) =     92.37552  eV     1   --> A              
     e( 94 - 94) =     93.91799  eV     1   --> A              
     e( 95 - 95) =     93.92938  eV     1   --> A              
     e( 96 - 96) =     94.50067  eV     1   --> A              
     e( 97 - 97) =     95.51050  eV     1   --> A              
     e( 98 - 98) =     95.75449  eV     1   --> A              
     e( 99 - 99) =     96.44366  eV     1   --> A              
     e(100 -100) =     96.44807  eV     1   --> A              

 **************************************************************************

 **************************************************************************

                    xk=(   0.00000,  -0.12922,  -0.07913  )

     Band symmetry, C_1 (1)     point group:

     e(  1 -  1) =    -90.78163  eV     1   --> A              
     e(  2 -  2) =    -88.60067  eV     1   --> A              
     e(  3 -  3) =    -51.10004  eV     1   --> A              
     e(  4 -  4) =    -51.08627  eV     1   --> A              
     e(  5 -  5) =    -51.08512  eV     1   --> A              
     e(  6 -  6) =    -48.97121  eV     1   --> A              
     e(  7 -  7) =    -48.95726  eV     1   --> A              
     e(  8 -  8) =    -48.95582  eV     1   --> A              
     e(  9 -  9) =     -5.44015  eV     1   --> A              
     e( 10 - 10) =     -4.00599  eV     1   --> A              
     e( 11 - 11) =      2.29032  eV     1   --> A              
     e( 12 - 12) =      5.34097  eV     1   --> A              
     e( 13 - 13) =      5.39996  eV     1   --> A              
     e( 14 - 14) =      7.78381  eV     1   --> A              
     e( 15 - 15) =      7.93338  eV     1   --> A              
     e( 16 - 16) =      8.10442  eV     1   --> A              
     e( 17 - 17) =      8.70458  eV     1   --> A              
     e( 18 - 18) =      9.00394  eV     1   --> A              
     e( 19 - 19) =      9.34222  eV     1   --> A              
     e( 20 - 20) =      9.46628  eV     1   --> A              
     e( 21 - 21) =      9.59189  eV     1   --> A              
     e( 22 - 22) =     10.14960  eV     1   --> A              
     e( 23 - 23) =     10.84843  eV     1   --> A              
     e( 24 - 24) =     10.91942  eV     1   --> A              
     e( 25 - 25) =     16.54111  eV     1   --> A              
     e( 26 - 26) =     16.74022  eV     1   --> A              
     e( 27 - 27) =     16.75859  eV     1   --> A              
     e( 28 - 28) =     20.42955  eV     1   --> A              
     e( 29 - 29) =     24.60076  eV     1   --> A              
     e( 30 - 30) =     28.08747  eV     1   --> A              
     e( 31 - 31) =     28.69296  eV     1   --> A              
     e( 32 - 32) =     30.90190  eV     1   --> A              
     e( 33 - 33) =     33.19726  eV     1   --> A              
     e( 34 - 34) =     33.19797  eV     1   --> A              
     e( 35 - 35) =     34.09815  eV     1   --> A              
     e( 36 - 36) =     36.34517  eV     1   --> A              
     e( 37 - 37) =     36.38244  eV     1   --> A              
     e( 38 - 38) =     36.39165  eV     1   --> A              
     e( 39 - 39) =     37.57281  eV     1   --> A              
     e( 40 - 40) =     38.88944  eV     1   --> A              
     e( 41 - 41) =     40.27255  eV     1   --> A              
     e( 42 - 42) =     41.42682  eV     1   --> A              
     e( 43 - 43) =     41.43370  eV     1   --> A              
     e( 44 - 44) =     42.07241  eV     1   --> A              
     e( 45 - 45) =     43.65976  eV     1   --> A              
     e( 46 - 46) =     44.17499  eV     1   --> A              
     e( 47 - 47) =     49.81733  eV     1   --> A              
     e( 48 - 48) =     50.80787  eV     1   --> A              
     e( 49 - 49) =     50.81000  eV     1   --> A              
     e( 50 - 50) =     52.23039  eV     1   --> A              
     e( 51 - 51) =     54.58003  eV     1   --> A              
     e( 52 - 52) =     54.60403  eV     1   --> A              
     e( 53 - 53) =     55.76713  eV     1   --> A              
     e( 54 - 54) =     58.12517  eV     1   --> A              
     e( 55 - 55) =     58.62231  eV     1   --> A              
     e( 56 - 56) =     59.33182  eV     1   --> A              
     e( 57 - 57) =     64.10233  eV     1   --> A              
     e( 58 - 58) =     65.69086  eV     1   --> A              
     e( 59 - 59) =     65.69895  eV     1   --> A              
     e( 60 - 60) =     66.01290  eV     1   --> A              
     e( 61 - 61) =     68.19075  eV     1   --> A              
     e( 62 - 62) =     68.57571  eV     1   --> A              
     e( 63 - 63) =     70.97793  eV     1   --> A              
     e( 64 - 64) =     71.01006  eV     1   --> A              
     e( 65 - 65) =     71.02084  eV     1   --> A              
     e( 66 - 66) =     71.06839  eV     1   --> A              
     e( 67 - 67) =     71.95024  eV     1   --> A              
     e( 68 - 68) =     72.67727  eV     1   --> A              
     e( 69 - 69) =     73.03539  eV     1   --> A              
     e( 70 - 70) =     73.56728  eV     1   --> A              
     e( 71 - 71) =     73.56973  eV     1   --> A              
     e( 72 - 72) =     74.06720  eV     1   --> A              
     e( 73 - 73) =     74.28243  eV     1   --> A              
     e( 74 - 74) =     78.20274  eV     1   --> A              
     e( 75 - 75) =     79.36524  eV     1   --> A              
     e( 76 - 76) =     80.03745  eV     1   --> A              
     e( 77 - 77) =     80.61285  eV     1   --> A              
     e( 78 - 78) =     84.63170  eV     1   --> A              
     e( 79 - 79) =     84.88445  eV     1   --> A              
     e( 80 - 80) =     86.04721  eV     1   --> A              
     e( 81 - 81) =     87.06501  eV     1   --> A              
     e( 82 - 82) =     87.06539  eV     1   --> A              
     e( 83 - 83) =     87.08456  eV     1   --> A              
     e( 84 - 84) =     88.86693  eV     1   --> A              
     e( 85 - 85) =     88.99843  eV     1   --> A              
     e( 86 - 86) =     89.12764  eV     1   --> A              
     e( 87 - 87) =     89.93711  eV     1   --> A              
     e( 88 - 88) =     90.21193  eV     1   --> A              
     e( 89 - 89) =     90.76357  eV     1   --> A              
     e( 90 - 90) =     91.17714  eV     1   --> A              
     e( 91 - 91) =     91.17832  eV     1   --> A              
     e( 92 - 92) =     92.05873  eV     1   --> A              
     e( 93 - 93) =     92.65496  eV     1   --> A              
     e( 94 - 94) =     93.95683  eV     1   --> A              
     e( 95 - 95) =     93.96691  eV     1   --> A              
     e( 96 - 96) =     94.82016  eV     1   --> A              
     e( 97 - 97) =     95.64936  eV     1   --> A              
     e( 98 - 98) =     96.18576  eV     1   --> A              
     e( 99 - 99) =     96.83858  eV     1   --> A              
     e(100 -100) =     96.84494  eV     1   --> A              

 **************************************************************************

 **************************************************************************

                    xk=(   0.00000,  -0.15076,  -0.09232  )

     Band symmetry, C_1 (1)     point group:

     e(  1 -  1) =    -90.78170  eV     1   --> A              
     e(  2 -  2) =    -88.60098  eV     1   --> A              
     e(  3 -  3) =    -51.10026  eV     1   --> A              
     e(  4 -  4) =    -51.08689  eV     1   --> A              
     e(  5 -  5) =    -51.08539  eV     1   --> A              
     e(  6 -  6) =    -48.97142  eV     1   --> A              
     e(  7 -  7) =    -48.95800  eV     1   --> A              
     e(  8 -  8) =    -48.95605  eV     1   --> A              
     e(  9 -  9) =     -5.42931  eV     1   --> A              
     e( 10 - 10) =     -4.01389  eV     1   --> A              
     e( 11 - 11) =      2.35110  eV     1   --> A              
     e( 12 - 12) =      5.32865  eV     1   --> A              
     e( 13 - 13) =      5.40765  eV     1   --> A              
     e( 14 - 14) =      7.69249  eV     1   --> A              
     e( 15 - 15) =      7.91043  eV     1   --> A              
     e( 16 - 16) =      8.09761  eV     1   --> A              
     e( 17 - 17) =      8.62212  eV     1   --> A              
     e( 18 - 18) =      9.00039  eV     1   --> A              
     e( 19 - 19) =      9.31667  eV     1   --> A              
     e( 20 - 20) =      9.47170  eV     1   --> A              
     e( 21 - 21) =      9.62115  eV     1   --> A              
     e( 22 - 22) =     10.14242  eV     1   --> A              
     e( 23 - 23) =     10.84466  eV     1   --> A              
     e( 24 - 24) =     10.93626  eV     1   --> A              
     e( 25 - 25) =     16.65776  eV     1   --> A              
     e( 26 - 26) =     16.72703  eV     1   --> A              
     e( 27 - 27) =     16.74884  eV     1   --> A              
     e( 28 - 28) =     20.53743  eV     1   --> A              
     e( 29 - 29) =     24.57266  eV     1   --> A              
     e( 30 - 30) =     27.95092  eV     1   --> A              
     e( 31 - 31) =     28.74919  eV     1   --> A              
     e( 32 - 32) =     30.60188  eV     1   --> A              
     e( 33 - 33) =     33.12662  eV     1   --> A              
     e( 34 - 34) =     33.12760  eV     1   --> A              
     e( 35 - 35) =     34.20391  eV     1   --> A              
     e( 36 - 36) =     36.27403  eV     1   --> A              
     e( 37 - 37) =     36.28059  eV     1   --> A              
     e( 38 - 38) =     36.51560  eV     1   --> A              
     e( 39 - 39) =     37.82310  eV     1   --> A              
     e( 40 - 40) =     38.66204  eV     1   --> A              
     e( 41 - 41) =     40.28797  eV     1   --> A              
     e( 42 - 42) =     41.69148  eV     1   --> A              
     e( 43 - 43) =     41.69785  eV     1   --> A              
     e( 44 - 44) =     42.19260  eV     1   --> A              
     e( 45 - 45) =     43.73480  eV     1   --> A              
     e( 46 - 46) =     44.39221  eV     1   --> A              
     e( 47 - 47) =     49.62400  eV     1   --> A              
     e( 48 - 48) =     50.80158  eV     1   --> A              
     e( 49 - 49) =     50.80370  eV     1   --> A              
     e( 50 - 50) =     52.48222  eV     1   --> A              
     e( 51 - 51) =     54.51798  eV     1   --> A              
     e( 52 - 52) =     54.53010  eV     1   --> A              
     e( 53 - 53) =     55.63381  eV     1   --> A              
     e( 54 - 54) =     58.28136  eV     1   --> A              
     e( 55 - 55) =     58.51070  eV     1   --> A              
     e( 56 - 56) =     59.51299  eV     1   --> A              
     e( 57 - 57) =     63.72938  eV     1   --> A              
     e( 58 - 58) =     65.17906  eV     1   --> A              
     e( 59 - 59) =     65.18375  eV     1   --> A              
     e( 60 - 60) =     66.05077  eV     1   --> A              
     e( 61 - 61) =     68.23533  eV     1   --> A              
     e( 62 - 62) =     68.73996  eV     1   --> A              
     e( 63 - 63) =     70.62637  eV     1   --> A              
     e( 64 - 64) =     70.97257  eV     1   --> A              
     e( 65 - 65) =     71.04753  eV     1   --> A              
     e( 66 - 66) =     71.04984  eV     1   --> A              
     e( 67 - 67) =     71.66707  eV     1   --> A              
     e( 68 - 68) =     72.76161  eV     1   --> A              
     e( 69 - 69) =     73.11138  eV     1   --> A              
     e( 70 - 70) =     74.16829  eV     1   --> A              
     e( 71 - 71) =     74.17351  eV     1   --> A              
     e( 72 - 72) =     74.24503  eV     1   --> A              
     e( 73 - 73) =     74.29768  eV     1   --> A              
     e( 74 - 74) =     77.78191  eV     1   --> A              
     e( 75 - 75) =     79.40789  eV     1   --> A              
     e( 76 - 76) =     80.55797  eV     1   --> A              
     e( 77 - 77) =     80.57484  eV     1   --> A              
     e( 78 - 78) =     84.82001  eV     1   --> A              
     e( 79 - 79) =     85.48091  eV     1   --> A              
     e( 80 - 80) =     85.53152  eV     1   --> A              
     e( 81 - 81) =     86.63621  eV     1   --> A              
     e( 82 - 82) =     86.63757  eV     1   --> A              
     e( 83 - 83) =     86.72969  eV     1   --> A              
     e( 84 - 84) =     88.55699  eV     1   --> A              
     e( 85 - 85) =     88.63192  eV     1   --> A              
     e( 86 - 86) =     88.82385  eV     1   --> A              
     e( 87 - 87) =     89.69074  eV     1   --> A              
     e( 88 - 88) =     89.94327  eV     1   --> A              
     e( 89 - 89) =     90.22366  eV     1   --> A              
     e( 90 - 90) =     90.79146  eV     1   --> A              
     e( 91 - 91) =     90.79225  eV     1   --> A              
     e( 92 - 92) =     91.76421  eV     1   --> A              
     e( 93 - 93) =     92.95938  eV     1   --> A              
     e( 94 - 94) =     93.99320  eV     1   --> A              
     e( 95 - 95) =     94.00360  eV     1   --> A              
     e( 96 - 96) =     95.16454  eV     1   --> A              
     e( 97 - 97) =     95.74192  eV     1   --> A              
     e( 98 - 98) =     96.60120  eV     1   --> A              
     e( 99 - 99) =     96.73772  eV     1   --> A              
     e(100 -100) =     96.74202  eV     1   --> A              

 **************************************************************************

 **************************************************************************

                    xk=(   0.00000,  -0.17229,  -0.10551  )

     Band symmetry, C_1 (1)     point group:

     e(  1 -  1) =    -90.78178  eV     1   --> A              
     e(  2 -  2) =    -88.60132  eV     1   --> A              
     e(  3 -  3) =    -51.10051  eV     1   --> A              
     e(  4 -  4) =    -51.08762  eV     1   --> A              
     e(  5 -  5) =    -51.08567  eV     1   --> A              
     e(  6 -  6) =    -48.97167  eV     1   --> A              
     e(  7 -  7) =    -48.95884  eV     1   --> A              
     e(  8 -  8) =    -48.95631  eV     1   --> A              
     e(  9 -  9) =     -5.41649  eV     1   --> A              
     e( 10 - 10) =     -4.02265  eV     1   --> A              
     e( 11 - 11) =      2.42016  eV     1   --> A              
     e( 12 - 12) =      5.31495  eV     1   --> A              
     e( 13 - 13) =      5.41624  eV     1   --> A              
     e( 14 - 14) =      7.58290  eV     1   --> A              
     e( 15 - 15) =      7.88485  eV     1   --> A              
     e( 16 - 16) =      8.08899  eV     1   --> A              
     e( 17 - 17) =      8.53967  eV     1   --> A              
     e( 18 - 18) =      8.99753  eV     1   --> A              
     e( 19 - 19) =      9.29260  eV     1   --> A              
     e( 20 - 20) =      9.47720  eV     1   --> A              
     e( 21 - 21) =      9.64768  eV     1   --> A              
     e( 22 - 22) =     10.13413  eV     1   --> A              
     e( 23 - 23) =     10.84145  eV     1   --> A              
     e( 24 - 24) =     10.95420  eV     1   --> A              
     e( 25 - 25) =     16.71424  eV     1   --> A              
     e( 26 - 26) =     16.73843  eV     1   --> A              
     e( 27 - 27) =     16.78661  eV     1   --> A              
     e( 28 - 28) =     20.65664  eV     1   --> A              
     e( 29 - 29) =     24.54068  eV     1   --> A              
     e( 30 - 30) =     27.80581  eV     1   --> A              
     e( 31 - 31) =     28.81282  eV     1   --> A              
     e( 32 - 32) =     30.29856  eV     1   --> A              
     e( 33 - 33) =     33.03961  eV     1   --> A              
     e( 34 - 34) =     33.04094  eV     1   --> A              
     e( 35 - 35) =     34.29332  eV     1   --> A              
     e( 36 - 36) =     36.18649  eV     1   --> A              
     e( 37 - 37) =     36.19164  eV     1   --> A              
     e( 38 - 38) =     36.62287  eV     1   --> A              
     e( 39 - 39) =     38.10241  eV     1   --> A              
     e( 40 - 40) =     38.50664  eV     1   --> A              
     e( 41 - 41) =     40.30620  eV     1   --> A              
     e( 42 - 42) =     41.96989  eV     1   --> A              
     e( 43 - 43) =     41.97932  eV     1   --> A              
     e( 44 - 44) =     42.30835  eV     1   --> A              
     e( 45 - 45) =     43.81997  eV     1   --> A              
     e( 46 - 46) =     44.61536  eV     1   --> A              
     e( 47 - 47) =     49.42631  eV     1   --> A              
     e( 48 - 48) =     50.79443  eV     1   --> A              
     e( 49 - 49) =     50.79655  eV     1   --> A              
     e( 50 - 50) =     52.74866  eV     1   --> A              
     e( 51 - 51) =     54.44731  eV     1   --> A              
     e( 52 - 52) =     54.46029  eV     1   --> A              
     e( 53 - 53) =     55.50798  eV     1   --> A              
     e( 54 - 54) =     58.38738  eV     1   --> A              
     e( 55 - 55) =     58.40287  eV     1   --> A              
     e( 56 - 56) =     59.73793  eV     1   --> A              
     e( 57 - 57) =     63.35789  eV     1   --> A              
     e( 58 - 58) =     64.66894  eV     1   --> A              
     e( 59 - 59) =     64.67298  eV     1   --> A              
     e( 60 - 60) =     66.04757  eV     1   --> A              
     e( 61 - 61) =     68.28672  eV     1   --> A              
     e( 62 - 62) =     68.88777  eV     1   --> A              
     e( 63 - 63) =     70.21417  eV     1   --> A              
     e( 64 - 64) =     70.96299  eV     1   --> A              
     e( 65 - 65) =     71.07804  eV     1   --> A              
     e( 66 - 66) =     71.07920  eV     1   --> A              
     e( 67 - 67) =     71.40911  eV     1   --> A              
     e( 68 - 68) =     72.82166  eV     1   --> A              
     e( 69 - 69) =     73.18614  eV     1   --> A              
     e( 70 - 70) =     74.31101  eV     1   --> A              
     e( 71 - 71) =     74.42948  eV     1   --> A              
     e( 72 - 72) =     74.78758  eV     1   --> A              
     e( 73 - 73) =     74.79132  eV     1   --> A              
     e( 74 - 74) =     77.40780  eV     1   --> A              
     e( 75 - 75) =     79.39704  eV     1   --> A              
     e( 76 - 76) =     80.49583  eV     1   --> A              
     e( 77 - 77) =     81.20504  eV     1   --> A              
     e( 78 - 78) =     84.46738  eV     1   --> A              
     e( 79 - 79) =     85.50106  eV     1   --> A              
     e( 80 - 80) =     86.03734  eV     1   --> A              
     e( 81 - 81) =     86.11662  eV     1   --> A              
     e( 82 - 82) =     86.18512  eV     1   --> A              
     e( 83 - 83) =     86.32344  eV     1   --> A              
     e( 84 - 84) =     88.25739  eV     1   --> A              
     e( 85 - 85) =     88.31047  eV     1   --> A              
     e( 86 - 86) =     88.55756  eV     1   --> A              
     e( 87 - 87) =     89.45029  eV     1   --> A              
     e( 88 - 88) =     89.68639  eV     1   --> A              
     e( 89 - 89) =     89.69201  eV     1   --> A              
     e( 90 - 90) =     90.42333  eV     1   --> A              
     e( 91 - 91) =     90.42381  eV     1   --> A              
     e( 92 - 92) =     91.48175  eV     1   --> A              
     e( 93 - 93) =     93.25498  eV     1   --> A              
     e( 94 - 94) =     94.02800  eV     1   --> A              
     e( 95 - 95) =     94.04034  eV     1   --> A              
     e( 96 - 96) =     95.52496  eV     1   --> A              
     e( 97 - 97) =     95.78582  eV     1   --> A              
     e( 98 - 98) =     96.41660  eV     1   --> A              
     e( 99 - 99) =     96.42371  eV     1   --> A              
     e(100 -100) =     96.99462  eV     1   --> A              

 **************************************************************************

 **************************************************************************

                    xk=(   0.00000,  -0.19383,  -0.11870  )

     Band symmetry, C_1 (1)     point group:

     e(  1 -  1) =    -90.78186  eV     1   --> A              
     e(  2 -  2) =    -88.60167  eV     1   --> A              
     e(  3 -  3) =    -51.10079  eV     1   --> A              
     e(  4 -  4) =    -51.08844  eV     1   --> A              
     e(  5 -  5) =    -51.08597  eV     1   --> A              
     e(  6 -  6) =    -48.97196  eV     1   --> A              
     e(  7 -  7) =    -48.95977  eV     1   --> A              
     e(  8 -  8) =    -48.95661  eV     1   --> A              
     e(  9 -  9) =     -5.40155  eV     1   --> A              
     e( 10 - 10) =     -4.03215  eV     1   --> A              
     e( 11 - 11) =      2.49705  eV     1   --> A              
     e( 12 - 12) =      5.30013  eV     1   --> A              
     e( 13 - 13) =      5.42562  eV     1   --> A              
     e( 14 - 14) =      7.45539  eV     1   --> A              
     e( 15 - 15) =      7.85704  eV     1   --> A              
     e( 16 - 16) =      8.07679  eV     1   --> A              
     e( 17 - 17) =      8.46024  eV     1   --> A              
     e( 18 - 18) =      8.99559  eV     1   --> A              
     e( 19 - 19) =      9.27081  eV     1   --> A              
     e( 20 - 20) =      9.48263  eV     1   --> A              
     e( 21 - 21) =      9.67094  eV     1   --> A              
     e( 22 - 22) =     10.12479  eV     1   --> A              
     e( 23 - 23) =     10.83921  eV     1   --> A              
     e( 24 - 24) =     10.97276  eV     1   --> A              
     e( 25 - 25) =     16.70256  eV     1   --> A              
     e( 26 - 26) =     16.72770  eV     1   --> A              
     e( 27 - 27) =     16.92580  eV     1   --> A              
     e( 28 - 28) =     20.78528  eV     1   --> A              
     e( 29 - 29) =     24.50512  eV     1   --> A              
     e( 30 - 30) =     27.65538  eV     1   --> A              
     e( 31 - 31) =     28.88334  eV     1   --> A              
     e( 32 - 32) =     29.99412  eV     1   --> A              
     e( 33 - 33) =     32.93543  eV     1   --> A              
     e( 34 - 34) =     32.93716  eV     1   --> A              
     e( 35 - 35) =     34.36853  eV     1   --> A              
     e( 36 - 36) =     36.11557  eV     1   --> A              
     e( 37 - 37) =     36.12001  eV     1   --> A              
     e( 38 - 38) =     36.64136  eV     1   --> A              
     e( 39 - 39) =     38.40654  eV     1   --> A              
     e( 40 - 40) =     38.46619  eV     1   --> A              
     e( 41 - 41) =     40.32815  eV     1   --> A              
     e( 42 - 42) =     42.24635  eV     1   --> A              
     e( 43 - 43) =     42.27341  eV     1   --> A              
     e( 44 - 44) =     42.43431  eV     1   --> A              
     e( 45 - 45) =     43.91483  eV     1   --> A              
     e( 46 - 46) =     44.83726  eV     1   --> A              
     e( 47 - 47) =     49.22428  eV     1   --> A              
     e( 48 - 48) =     50.78659  eV     1   --> A              
     e( 49 - 49) =     50.78872  eV     1   --> A              
     e( 50 - 50) =     53.03025  eV     1   --> A              
     e( 51 - 51) =     54.35669  eV     1   --> A              
     e( 52 - 52) =     54.41092  eV     1   --> A              
     e( 53 - 53) =     55.38818  eV     1   --> A              
     e( 54 - 54) =     58.25318  eV     1   --> A              
     e( 55 - 55) =     58.49476  eV     1   --> A              
     e( 56 - 56) =     59.99556  eV     1   --> A              
     e( 57 - 57) =     62.99632  eV     1   --> A              
     e( 58 - 58) =     64.16628  eV     1   --> A              
     e( 59 - 59) =     64.17010  eV     1   --> A              
     e( 60 - 60) =     65.98211  eV     1   --> A              
     e( 61 - 61) =     68.34490  eV     1   --> A              
     e( 62 - 62) =     69.02148  eV     1   --> A              
     e( 63 - 63) =     69.82267  eV     1   --> A              
     e( 64 - 64) =     70.94780  eV     1   --> A              
     e( 65 - 65) =     71.11119  eV     1   --> A              
     e( 66 - 66) =     71.11233  eV     1   --> A              
     e( 67 - 67) =     71.19977  eV     1   --> A              
     e( 68 - 68) =     72.83572  eV     1   --> A              
     e( 69 - 69) =     73.25690  eV     1   --> A              
     e( 70 - 70) =     74.32128  eV     1   --> A              
     e( 71 - 71) =     74.64255  eV     1   --> A              
     e( 72 - 72) =     75.40482  eV     1   --> A              
     e( 73 - 73) =     75.40759  eV     1   --> A              
     e( 74 - 74) =     77.10162  eV     1   --> A              
     e( 75 - 75) =     79.39240  eV     1   --> A              
     e( 76 - 76) =     80.42459  eV     1   --> A              
     e( 77 - 77) =     81.86161  eV     1   --> A              
     e( 78 - 78) =     83.85360  eV     1   --> A              
     e( 79 - 79) =     85.51416  eV     1   --> A              
     e( 80 - 80) =     85.51793  eV     1   --> A              
     e( 81 - 81) =     85.67727  eV     1   --> A              
     e( 82 - 82) =     85.88491  eV     1   --> A              
     e( 83 - 83) =     86.74954  eV     1   --> A              
     e( 84 - 84) =     87.97515  eV     1   --> A              
     e( 85 - 85) =     88.01951  eV     1   --> A              
     e( 86 - 86) =     88.32215  eV     1   --> A              
     e( 87 - 87) =     89.15348  eV     1   --> A              
     e( 88 - 88) =     89.22717  eV     1   --> A              
     e( 89 - 89) =     89.44916  eV     1   --> A              
     e( 90 - 90) =     90.07495  eV     1   --> A              
     e( 91 - 91) =     90.07533  eV     1   --> A              
     e( 92 - 92) =     91.22827  eV     1   --> A              
     e( 93 - 93) =     93.53044  eV     1   --> A              
     e( 94 - 94) =     94.06130  eV     1   --> A              
     e( 95 - 95) =     94.07817  eV     1   --> A              
     e( 96 - 96) =     95.77720  eV     1   --> A              
     e( 97 - 97) =     95.87911  eV     1   --> A              
     e( 98 - 98) =     96.11723  eV     1   --> A              
     e( 99 - 99) =     96.14546  eV     1   --> A              
     e(100 -100) =     97.36598  eV     1   --> A              

 **************************************************************************

 **************************************************************************

                    xk=(   0.00000,  -0.21537,  -0.13188  )

     Band symmetry, C_1 (1)     point group:

     e(  1 -  1) =    -90.78195  eV     1   --> A              
     e(  2 -  2) =    -88.60203  eV     1   --> A              
     e(  3 -  3) =    -51.10111  eV     1   --> A              
     e(  4 -  4) =    -51.08935  eV     1   --> A              
     e(  5 -  5) =    -51.08628  eV     1   --> A              
     e(  6 -  6) =    -48.97227  eV     1   --> A              
     e(  7 -  7) =    -48.96079  eV     1   --> A              
     e(  8 -  8) =    -48.95693  eV     1   --> A              
     e(  9 -  9) =     -5.38437  eV     1   --> A              
     e( 10 - 10) =     -4.04225  eV     1   --> A              
     e( 11 - 11) =      2.58125  eV     1   --> A              
     e( 12 - 12) =      5.28446  eV     1   --> A              
     e( 13 - 13) =      5.43563  eV     1   --> A              
     e( 14 - 14) =      7.31099  eV     1   --> A              
     e( 15 - 15) =      7.82746  eV     1   --> A              
     e( 16 - 16) =      8.05799  eV     1   --> A              
     e( 17 - 17) =      8.38751  eV     1   --> A              
     e( 18 - 18) =      8.99465  eV     1   --> A              
     e( 19 - 19) =      9.25170  eV     1   --> A              
     e( 20 - 20) =      9.48789  eV     1   --> A              
     e( 21 - 21) =      9.69056  eV     1   --> A              
     e( 22 - 22) =     10.11448  eV     1   --> A              
     e( 23 - 23) =     10.83832  eV     1   --> A              
     e( 24 - 24) =     10.99143  eV     1   --> A              
     e( 25 - 25) =     16.69248  eV     1   --> A              
     e( 26 - 26) =     16.71696  eV     1   --> A              
     e( 27 - 27) =     17.07362  eV     1   --> A              
     e( 28 - 28) =     20.92132  eV     1   --> A              
     e( 29 - 29) =     24.46644  eV     1   --> A              
     e( 30 - 30) =     27.50256  eV     1   --> A              
     e( 31 - 31) =     28.96019  eV     1   --> A              
     e( 32 - 32) =     29.69025  eV     1   --> A              
     e( 33 - 33) =     32.81406  eV     1   --> A              
     e( 34 - 34) =     32.81625  eV     1   --> A              
     e( 35 - 35) =     34.43197  eV     1   --> A              
     e( 36 - 36) =     36.06450  eV     1   --> A              
     e( 37 - 37) =     36.06853  eV     1   --> A              
     e( 38 - 38) =     36.54882  eV     1   --> A              
     e( 39 - 39) =     38.56116  eV     1   --> A              
     e( 40 - 40) =     38.73202  eV     1   --> A              
     e( 41 - 41) =     40.35467  eV     1   --> A              
     e( 42 - 42) =     42.45510  eV     1   --> A              
     e( 43 - 43) =     42.57606  eV     1   --> A              
     e( 44 - 44) =     42.63519  eV     1   --> A              
     e( 45 - 45) =     44.01901  eV     1   --> A              
     e( 46 - 46) =     45.05199  eV     1   --> A              
     e( 47 - 47) =     49.01821  eV     1   --> A              
     e( 48 - 48) =     50.77832  eV     1   --> A              
     e( 49 - 49) =     50.78045  eV     1   --> A              
     e( 50 - 50) =     53.32727  eV     1   --> A              
     e( 51 - 51) =     54.25940  eV     1   --> A              
     e( 52 - 52) =     54.37337  eV     1   --> A              
     e( 53 - 53) =     55.27337  eV     1   --> A              
     e( 54 - 54) =     58.10849  eV     1   --> A              
     e( 55 - 55) =     58.56449  eV     1   --> A              
     e( 56 - 56) =     60.26716  eV     1   --> A              
     e( 57 - 57) =     62.65775  eV     1   --> A              
     e( 58 - 58) =     63.67388  eV     1   --> A              
     e( 59 - 59) =     63.67763  eV     1   --> A              
     e( 60 - 60) =     65.84105  eV     1   --> A              
     e( 61 - 61) =     68.40977  eV     1   --> A              
     e( 62 - 62) =     69.14417  eV     1   --> A              
     e( 63 - 63) =     69.44508  eV     1   --> A              
     e( 64 - 64) =     70.92540  eV     1   --> A              
     e( 65 - 65) =     71.05729  eV     1   --> A              
     e( 66 - 66) =     71.15020  eV     1   --> A              
     e( 67 - 67) =     71.15437  eV     1   --> A              
     e( 68 - 68) =     72.78104  eV     1   --> A              
     e( 69 - 69) =     73.32134  eV     1   --> A              
     e( 70 - 70) =     74.32627  eV     1   --> A              
     e( 71 - 71) =     74.87008  eV     1   --> A              
     e( 72 - 72) =     76.02102  eV     1   --> A              
     e( 73 - 73) =     76.02332  eV     1   --> A              
     e( 74 - 74) =     76.88204  eV     1   --> A              
     e( 75 - 75) =     79.40392  eV     1   --> A              
     e( 76 - 76) =     80.34196  eV     1   --> A              
     e( 77 - 77) =     82.52796  eV     1   --> A              
     e( 78 - 78) =     83.21790  eV     1   --> A              
     e( 79 - 79) =     84.88470  eV     1   --> A              
     e( 80 - 80) =     84.88645  eV     1   --> A              
     e( 81 - 81) =     85.38883  eV     1   --> A              
     e( 82 - 82) =     85.82070  eV     1   --> A              
     e( 83 - 83) =     87.32811  eV     1   --> A              
     e( 84 - 84) =     87.70321  eV     1   --> A              
     e( 85 - 85) =     87.74234  eV     1   --> A              
     e( 86 - 86) =     88.17071  eV     1   --> A              
     e( 87 - 87) =     88.62643  eV     1   --> A              
     e( 88 - 88) =     89.00483  eV     1   --> A              
     e( 89 - 89) =     89.23030  eV     1   --> A              
     e( 90 - 90) =     89.74848  eV     1   --> A              
     e( 91 - 91) =     89.74900  eV     1   --> A              
     e( 92 - 92) =     91.01683  eV     1   --> A              
     e( 93 - 93) =     93.77573  eV     1   --> A              
     e( 94 - 94) =     94.09278  eV     1   --> A              
     e( 95 - 95) =     94.12035  eV     1   --> A              
     e( 96 - 96) =     95.71650  eV     1   --> A              
     e( 97 - 97) =     95.83204  eV     1   --> A              
     e( 98 - 98) =     95.84893  eV     1   --> A              
     e( 99 - 99) =     96.30563  eV     1   --> A              
     e(100 -100) =     97.71876  eV     1   --> A              

 **************************************************************************

 **************************************************************************

                    xk=(   0.00000,  -0.23690,  -0.14507  )

     Band symmetry, C_1 (1)     point group:

     e(  1 -  1) =    -90.78204  eV     1   --> A              
     e(  2 -  2) =    -88.60238  eV     1   --> A              
     e(  3 -  3) =    -51.10146  eV     1   --> A              
     e(  4 -  4) =    -51.09032  eV     1   --> A              
     e(  5 -  5) =    -51.08662  eV     1   --> A              
     e(  6 -  6) =    -48.97262  eV     1   --> A              
     e(  7 -  7) =    -48.96188  eV     1   --> A              
     e(  8 -  8) =    -48.95728  eV     1   --> A              
     e(  9 -  9) =     -5.36482  eV     1   --> A              
     e( 10 - 10) =     -4.05281  eV     1   --> A              
     e( 11 - 11) =      2.67220  eV     1   --> A              
     e( 12 - 12) =      5.26828  eV     1   --> A              
     e( 13 - 13) =      5.44614  eV     1   --> A              
     e( 14 - 14) =      7.15129  eV     1   --> A              
     e( 15 - 15) =      7.79662  eV     1   --> A              
     e( 16 - 16) =      8.02817  eV     1   --> A              
     e( 17 - 17) =      8.32618  eV     1   --> A              
     e( 18 - 18) =      8.99474  eV     1   --> A              
     e( 19 - 19) =      9.23536  eV     1   --> A              
     e( 20 - 20) =      9.49293  eV     1   --> A              
     e( 21 - 21) =      9.70624  eV     1   --> A              
     e( 22 - 22) =     10.10339  eV     1   --> A              
     e( 23 - 23) =     10.83912  eV     1   --> A              
     e( 24 - 24) =     11.00976  eV     1   --> A              
     e( 25 - 25) =     16.68444  eV     1   --> A              
     e( 26 - 26) =     16.70655  eV     1   --> A              
     e( 27 - 27) =     17.22841  eV     1   --> A              
     e( 28 - 28) =     21.06258  eV     1   --> A              
     e( 29 - 29) =     24.42531  eV     1   --> A              
     e( 30 - 30) =     27.34995  eV     1   --> A              
     e( 31 - 31) =     29.04276  eV     1   --> A              
     e( 32 - 32) =     29.38830  eV     1   --> A              
     e( 33 - 33) =     32.67631  eV     1   --> A              
     e( 34 - 34) =     32.67900  eV     1   --> A              
     e( 35 - 35) =     34.48602  eV     1   --> A              
     e( 36 - 36) =     36.03450  eV     1   --> A              
     e( 37 - 37) =     36.03857  eV     1   --> A              
     e( 38 - 38) =     36.36571  eV     1   --> A              
     e( 39 - 39) =     38.77086  eV     1   --> A              
     e( 40 - 40) =     39.07462  eV     1   --> A              
     e( 41 - 41) =     40.38655  eV     1   --> A              
     e( 42 - 42) =     42.58233  eV     1   --> A              
     e( 43 - 43) =     42.88356  eV     1   --> A              
     e( 44 - 44) =     42.92337  eV     1   --> A              
     e( 45 - 45) =     44.13221  eV     1   --> A              
     e( 46 - 46) =     45.25484  eV     1   --> A              
     e( 47 - 47) =     48.80875  eV     1   --> A              
     e( 48 - 48) =     50.77003  eV     1   --> A              
     e( 49 - 49) =     50.77217  eV     1   --> A              
     e( 50 - 50) =     53.63961  eV     1   --> A              
     e( 51 - 51) =     54.15670  eV     1   --> A              
     e( 52 - 52) =     54.35052  eV     1   --> A              
     e( 53 - 53) =     55.16298  eV     1   --> A              
     e( 54 - 54) =     57.95320  eV     1   --> A              
     e( 55 - 55) =     58.61845  eV     1   --> A              
     e( 56 - 56) =     60.52161  eV     1   --> A              
[...]

 **************************************************************************

 **************************************************************************

                    xk=(   0.00781,  -0.02591,  -0.04231  )

     Band symmetry, C_1 (1)     point group:

     e(  1 -  1) =    -90.78143  eV     1   --> A              
     e(  2 -  2) =    -88.59978  eV     1   --> A              
     e(  3 -  3) =    -51.09951  eV     1   --> A              
     e(  4 -  4) =    -51.08512  eV     1   --> A              
     e(  5 -  5) =    -51.08406  eV     1   --> A              
     e(  6 -  6) =    -48.97067  eV     1   --> A              
     e(  7 -  7) =    -48.95549  eV     1   --> A              
     e(  8 -  8) =    -48.95516  eV     1   --> A              
     e(  9 -  9) =     -5.46569  eV     1   --> A              
     e( 10 - 10) =     -3.98373  eV     1   --> A              
     e( 11 - 11) =      2.13507  eV     1   --> A              
     e( 12 - 12) =      5.37236  eV     1   --> A              
     e( 13 - 13) =      5.37980  eV     1   --> A              
     e( 14 - 14) =      7.98214  eV     1   --> A              
     e( 15 - 15) =      7.98941  eV     1   --> A              
     e( 16 - 16) =      8.12986  eV     1   --> A              
     e( 17 - 17) =      8.97360  eV     1   --> A              
     e( 18 - 18) =      9.02548  eV     1   --> A              
     e( 19 - 19) =      9.42208  eV     1   --> A              
     e( 20 - 20) =      9.44913  eV     1   --> A              
     e( 21 - 21) =      9.47574  eV     1   --> A              
     e( 22 - 22) =     10.16723  eV     1   --> A              
     e( 23 - 23) =     10.86219  eV     1   --> A              
     e( 24 - 24) =     10.87073  eV     1   --> A              
     e( 25 - 25) =     16.23062  eV     1   --> A              
     e( 26 - 26) =     16.78051  eV     1   --> A              
     e( 27 - 27) =     16.78831  eV     1   --> A              
     e( 28 - 28) =     20.14760  eV     1   --> A              
     e( 29 - 29) =     24.66940  eV     1   --> A              
     e( 30 - 30) =     28.46997  eV     1   --> A              
     e( 31 - 31) =     28.54897  eV     1   --> A              
     e( 32 - 32) =     31.97790  eV     1   --> A              
     e( 33 - 33) =     33.30303  eV     1   --> A              
     e( 34 - 34) =     33.36764  eV     1   --> A              
     e( 35 - 35) =     33.55528  eV     1   --> A              
     e( 36 - 36) =     35.81900  eV     1   --> A              
     e( 37 - 37) =     36.69351  eV     1   --> A              
     e( 38 - 38) =     36.84880  eV     1   --> A              
     e( 39 - 39) =     36.93991  eV     1   --> A              
     e( 40 - 40) =     39.97253  eV     1   --> A              
     e( 41 - 41) =     40.18353  eV     1   --> A              
     e( 42 - 42) =     40.62576  eV     1   --> A              
     e( 43 - 43) =     40.71181  eV     1   --> A              
     e( 44 - 44) =     41.49532  eV     1   --> A              
     e( 45 - 45) =     43.48111  eV     1   --> A              
     e( 46 - 46) =     43.51269  eV     1   --> A              
     e( 47 - 47) =     50.55770  eV     1   --> A              
     e( 48 - 48) =     50.81699  eV     1   --> A              
     e( 49 - 49) =     50.82848  eV     1   --> A              
     e( 50 - 50) =     51.35378  eV     1   --> A              
     e( 51 - 51) =     54.76487  eV     1   --> A              
     e( 52 - 52) =     54.82123  eV     1   --> A              
     e( 53 - 53) =     56.64390  eV     1   --> A              
     e( 54 - 54) =     57.03529  eV     1   --> A              
     e( 55 - 55) =     58.95140  eV     1   --> A              
     e( 56 - 56) =     58.98406  eV     1   --> A              
     e( 57 - 57) =     65.41729  eV     1   --> A              
     e( 58 - 58) =     65.69142  eV     1   --> A              
     e( 59 - 59) =     67.52785  eV     1   --> A              
     e( 60 - 60) =     67.83309  eV     1   --> A              
     e( 61 - 61) =     67.85821  eV     1   --> A              
     e( 62 - 62) =     67.97052  eV     1   --> A              
     e( 63 - 63) =     70.95477  eV     1   --> A              
     e( 64 - 64) =     70.98112  eV     1   --> A              
     e( 65 - 65) =     71.05023  eV     1   --> A              
     e( 66 - 66) =     71.21981  eV     1   --> A              
     e( 67 - 67) =     71.49731  eV     1   --> A              
     e( 68 - 68) =     72.37680  eV     1   --> A              
     e( 69 - 69) =     72.39299  eV     1   --> A              
     e( 70 - 70) =     72.75700  eV     1   --> A              
     e( 71 - 71) =     73.20586  eV     1   --> A              
     e( 72 - 72) =     73.66129  eV     1   --> A              
     e( 73 - 73) =     74.23245  eV     1   --> A              
     e( 74 - 74) =     77.57619  eV     1   --> A              
     e( 75 - 75) =     79.91406  eV     1   --> A              
     e( 76 - 76) =     80.03020  eV     1   --> A              
     e( 77 - 77) =     80.84367  eV     1   --> A              
     e( 78 - 78) =     82.98985  eV     1   --> A              
     e( 79 - 79) =     83.13452  eV     1   --> A              
     e( 80 - 80) =     87.86799  eV     1   --> A              
     e( 81 - 81) =     87.88961  eV     1   --> A              
     e( 82 - 82) =     87.93730  eV     1   --> A              
     e( 83 - 83) =     88.48153  eV     1   --> A              
     e( 84 - 84) =     89.72158  eV     1   --> A              
     e( 85 - 85) =     90.44486  eV     1   --> A              
     e( 86 - 86) =     90.61904  eV     1   --> A              
     e( 87 - 87) =     90.79576  eV     1   --> A              
     e( 88 - 88) =     90.84820  eV     1   --> A              
     e( 89 - 89) =     92.25701  eV     1   --> A              
     e( 90 - 90) =     92.67442  eV     1   --> A              
     e( 91 - 91) =     92.86106  eV     1   --> A              
     e( 92 - 92) =     93.00163  eV     1   --> A              
     e( 93 - 93) =     93.02924  eV     1   --> A              
     e( 94 - 94) =     93.75557  eV     1   --> A              
     e( 95 - 95) =     93.84143  eV     1   --> A              
     e( 96 - 96) =     93.85630  eV     1   --> A              
     e( 97 - 97) =     94.32148  eV     1   --> A              
     e( 98 - 98) =     95.01568  eV     1   --> A              
     e( 99 - 99) =     95.15200  eV     1   --> A              
     e(100 -100) =     95.45948  eV     1   --> A              

 **************************************************************************

 **************************************************************************

                    xk=(   0.00391,  -0.01296,  -0.02116  )

     Band symmetry, C_1 (1)     point group:

     e(  1 -  1) =    -90.78143  eV     1   --> A              
     e(  2 -  2) =    -88.59971  eV     1   --> A              
     e(  3 -  3) =    -51.09945  eV     1   --> A              
     e(  4 -  4) =    -51.08497  eV     1   --> A              
     e(  5 -  5) =    -51.08397  eV     1   --> A              
     e(  6 -  6) =    -48.97061  eV     1   --> A              
     e(  7 -  7) =    -48.95530  eV     1   --> A              
     e(  8 -  8) =    -48.95509  eV     1   --> A              
     e(  9 -  9) =     -5.46797  eV     1   --> A              
     e( 10 - 10) =     -3.98283  eV     1   --> A              
     e( 11 - 11) =      2.12186  eV     1   --> A              
     e( 12 - 12) =      5.37615  eV     1   --> A              
     e( 13 - 13) =      5.37792  eV     1   --> A              
     e( 14 - 14) =      7.99583  eV     1   --> A              
     e( 15 - 15) =      7.99830  eV     1   --> A              
     e( 16 - 16) =      8.13212  eV     1   --> A              
     e( 17 - 17) =      9.00874  eV     1   --> A              
     e( 18 - 18) =      9.02362  eV     1   --> A              
     e( 19 - 19) =      9.44044  eV     1   --> A              
     e( 20 - 20) =      9.44680  eV     1   --> A              
     e( 21 - 21) =      9.45167  eV     1   --> A              
     e( 22 - 22) =     10.16871  eV     1   --> A              
     e( 23 - 23) =     10.86308  eV     1   --> A              
     e( 24 - 24) =     10.86751  eV     1   --> A              
     e( 25 - 25) =     16.20005  eV     1   --> A              
     e( 26 - 26) =     16.78700  eV     1   --> A              
     e( 27 - 27) =     16.78961  eV     1   --> A              
     e( 28 - 28) =     20.11654  eV     1   --> A              
     e( 29 - 29) =     24.67730  eV     1   --> A              
     e( 30 - 30) =     28.51615  eV     1   --> A              
     e( 31 - 31) =     28.53618  eV     1   --> A              
     e( 32 - 32) =     32.14413  eV     1   --> A              
     e( 33 - 33) =     33.34806  eV     1   --> A              
     e( 34 - 34) =     33.36424  eV     1   --> A              
     e( 35 - 35) =     33.41831  eV     1   --> A              
     e( 36 - 36) =     35.75080  eV     1   --> A              
     e( 37 - 37) =     36.80512  eV     1   --> A              
     e( 38 - 38) =     36.84853  eV     1   --> A              
     e( 39 - 39) =     36.87048  eV     1   --> A              
     e( 40 - 40) =     40.13941  eV     1   --> A              
     e( 41 - 41) =     40.19640  eV     1   --> A              
     e( 42 - 42) =     40.58992  eV     1   --> A              
     e( 43 - 43) =     40.60699  eV     1   --> A              
     e( 44 - 44) =     41.33458  eV     1   --> A              
     e( 45 - 45) =     43.45426  eV     1   --> A              
     e( 46 - 46) =     43.46215  eV     1   --> A              
     e( 47 - 47) =     50.72423  eV     1   --> A              
     e( 48 - 48) =     50.82356  eV     1   --> A              
     e( 49 - 49) =     50.82759  eV     1   --> A              
     e( 50 - 50) =     51.17173  eV     1   --> A              
     e( 51 - 51) =     54.80540  eV     1   --> A              
     e( 52 - 52) =     54.81990  eV     1   --> A              
     e( 53 - 53) =     56.70199  eV     1   --> A              
     e( 54 - 54) =     56.94204  eV     1   --> A              
     e( 55 - 55) =     58.96085  eV     1   --> A              
     e( 56 - 56) =     58.96898  eV     1   --> A              
     e( 57 - 57) =     65.61615  eV     1   --> A              
     e( 58 - 58) =     65.69121  eV     1   --> A              
     e( 59 - 59) =     67.68312  eV     1   --> A              
     e( 60 - 60) =     67.91306  eV     1   --> A              
     e( 61 - 61) =     68.00471  eV     1   --> A              
     e( 62 - 62) =     68.04221  eV     1   --> A              
     e( 63 - 63) =     70.94052  eV     1   --> A              
     e( 64 - 64) =     70.95569  eV     1   --> A              
     e( 65 - 65) =     70.97903  eV     1   --> A              
     e( 66 - 66) =     71.03694  eV     1   --> A              
     e( 67 - 67) =     71.09744  eV     1   --> A              
     e( 68 - 68) =     72.38271  eV     1   --> A              
     e( 69 - 69) =     72.50331  eV     1   --> A              
     e( 70 - 70) =     72.71984  eV     1   --> A              
     e( 71 - 71) =     73.49229  eV     1   --> A              
     e( 72 - 72) =     73.61772  eV     1   --> A              
     e( 73 - 73) =     74.22701  eV     1   --> A              
     e( 74 - 74) =     77.22877  eV     1   --> A              
     e( 75 - 75) =     80.15470  eV     1   --> A              
     e( 76 - 76) =     80.19730  eV     1   --> A              
     e( 77 - 77) =     80.91204  eV     1   --> A              
     e( 78 - 78) =     82.74501  eV     1   --> A              
     e( 79 - 79) =     82.79111  eV     1   --> A              
     e( 80 - 80) =     87.95132  eV     1   --> A              
     e( 81 - 81) =     87.95682  eV     1   --> A              
     e( 82 - 82) =     87.96849  eV     1   --> A              
     e( 83 - 83) =     89.01242  eV     1   --> A              
     e( 84 - 84) =     89.87598  eV     1   --> A              
     e( 85 - 85) =     90.17330  eV     1   --> A              
     e( 86 - 86) =     90.88205  eV     1   --> A              
     e( 87 - 87) =     90.93267  eV     1   --> A              
     e( 88 - 88) =     90.95860  eV     1   --> A              
     e( 89 - 89) =     92.60951  eV     1   --> A              
     e( 90 - 90) =     93.14495  eV     1   --> A              
     e( 91 - 91) =     93.15986  eV     1   --> A              
     e( 92 - 92) =     93.18674  eV     1   --> A              
     e( 93 - 93) =     93.23229  eV     1   --> A              
     e( 94 - 94) =     93.65679  eV     1   --> A              
     e( 95 - 95) =     93.70397  eV     1   --> A              
     e( 96 - 96) =     93.73430  eV     1   --> A              
     e( 97 - 97) =     93.86623  eV     1   --> A              
     e( 98 - 98) =     94.99678  eV     1   --> A              
     e( 99 - 99) =     95.05911  eV     1   --> A              
     e(100 -100) =     95.11988  eV     1   --> A              

 **************************************************************************

 **************************************************************************

                    xk=(   0.00000,   0.00000,   0.00000  )

     point group C_i (-1)   
     there are  2 classes
     the character table:

       E     i    
A_g    1.00  1.00
A_u    1.00 -1.00

     the symmetry operations in each class and the name of the first element:

     E        1
                                                                 
     i        2
                                                                 

     Band symmetry, C_i (-1)    point group:

     e(  1 -  1) =    -90.78143  eV     1   --> A_g            
     e(  2 -  2) =    -88.59968  eV     1   --> A_g            
     e(  3 -  3) =    -51.09943  eV     1   --> A_u            
     e(  4 -  4) =    -51.08492  eV     1   --> A_u            
     e(  5 -  5) =    -51.08394  eV     1   --> A_u            
     e(  6 -  6) =    -48.97058  eV     1   --> A_u            
     e(  7 -  7) =    -48.95524  eV     1   --> A_u            
     e(  8 -  8) =    -48.95506  eV     1   --> A_u            
     e(  9 -  9) =     -5.46873  eV     1   --> A_g            
     e( 10 - 10) =     -3.98253  eV     1   --> A_u            
     e( 11 - 11) =      2.11745  eV     1   --> A_g            
     e( 12 - 12) =      5.37710  eV     1   --> A_g            
     e( 13 - 13) =      5.37761  eV     1   --> A_g            
     e( 14 - 14) =      8.00004  eV     1   --> A_g            
     e( 15 - 15) =      8.00146  eV     1   --> A_g            
     e( 16 - 16) =      8.13299  eV     1   --> A_g            
     e( 17 - 17) =      9.02046  eV     1   --> A_g            
     e( 18 - 18) =      9.02384  eV     1   --> A_g            
     e( 19 - 19) =      9.44207  eV     1   --> A_u            
     e( 20 - 21) =      9.44674  eV     2   -->   2 A_u            
     e( 22 - 22) =     10.16920  eV     1   --> A_g            
     e( 23 - 23) =     10.86336  eV     1   --> A_g            
     e( 24 - 24) =     10.86640  eV     1   --> A_g            
     e( 25 - 25) =     16.18978  eV     1   --> A_g            
     e( 26 - 26) =     16.78910  eV     1   --> A_g            
     e( 27 - 27) =     16.79018  eV     1   --> A_g            
     e( 28 - 28) =     20.10612  eV     1   --> A_u            
     e( 29 - 29) =     24.67994  eV     1   --> A_g            
     e( 30 - 30) =     28.53173  eV     1   --> A_u            
     e( 31 - 31) =     28.53196  eV     1   --> A_u            
     e( 32 - 32) =     32.20908  eV     1   --> A_u            
     e( 33 - 33) =     33.36298  eV     1   --> A_g            
     e( 34 - 34) =     33.36313  eV     1   --> A_g            
     e( 35 - 35) =     33.36330  eV     1   --> A_g            
     e( 36 - 36) =     35.72773  eV     1   --> A_g            
     e( 37 - 37) =     36.84130  eV     1   --> A_u            
     e( 38 - 38) =     36.84924  eV     1   --> A_u            
     e( 39 - 39) =     36.84945  eV     1   --> A_u            
     e( 40 - 40) =     40.19975  eV     1   --> A_g            
     e( 41 - 41) =     40.20024  eV     1   --> A_g            
     e( 42 - 42) =     40.57894  eV     1   --> A_g            
     e( 43 - 43) =     40.57947  eV     1   --> A_g            
     e( 44 - 44) =     41.26655  eV     1   --> A_u            
     e( 45 - 46) =     43.44519  eV     2   -->   2 A_u            
     e( 47 - 48) =     50.82532  eV     2   -->   2 A_u            
     e( 49 - 49) =     50.82777  eV     1   --> A_u            
     e( 50 - 50) =     51.06537  eV     1   --> A_g            
     e( 51 - 51) =     54.81915  eV     1   --> A_g            
     e( 52 - 52) =     54.81948  eV     1   --> A_g            
     e( 53 - 53) =     56.73639  eV     1   --> A_u            
     e( 54 - 54) =     56.89567  eV     1   --> A_g            
     e( 55 - 55) =     58.96390  eV     1   --> A_u            
     e( 56 - 56) =     58.96401  eV     1   --> A_u            
     e( 57 - 58) =     65.69118  eV     2   -->   2 A_g            
     e( 59 - 59) =     67.61610  eV     1   --> A_u            
     e( 60 - 60) =     68.06505  eV     1   --> A_u            
     e( 61 - 62) =     68.06736  eV     2   -->   2 A_u            
     e( 63 - 64) =     70.90800  eV     2   -->   2 A_g            
     e( 65 - 65) =     70.97489  eV     1   --> A_g            
     e( 66 - 67) =     70.97837  eV     2   -->   2 A_g            
     e( 68 - 68) =     72.38146  eV     1   --> A_g            
     e( 69 - 69) =     72.54358  eV     1   --> A_u            
     e( 70 - 70) =     72.70605  eV     1   --> A_u            
     e( 71 - 72) =     73.60308  eV     2   -->   2 A_u            
     e( 73 - 73) =     74.22517  eV     1   --> A_g            
     e( 74 - 74) =     77.09920  eV     1   --> A_g            
     e( 75 - 76) =     80.24554  eV     2   -->   2 A_g            
     e( 77 - 77) =     80.96630  eV     1   --> A_g            
     e( 78 - 79) =     82.65245  eV     2   -->   2 A_u            
     e( 80 - 80) =     87.97823  eV     1   --> A_u            
     e( 81 - 82) =     87.97884  eV     2   -->   2 A_u            
     e( 83 - 83) =     89.32558  eV     1   --> A_u            
     e( 84 - 84) =     89.92458  eV     1   --> A_g            
     e( 85 - 85) =     89.92469  eV     1   --> A_g            
     e( 86 - 87) =     90.97203  eV     2   -->   2 A_u            
     e( 88 - 88) =     91.03218  eV     1   --> A_u            
     e( 89 - 89) =     92.83132  eV     1   --> A_g            
     e( 90 - 90) =     93.18427  eV     1   --> A_u            
     e( 91 - 91) =     93.36796  eV     1   --> A_u            
     e( 92 - 92) =     93.36811  eV     1   --> A_u            
     e( 93 - 93) =     93.37719  eV     1   --> A_u            
     e( 94 - 94) =     93.61693  eV     1   --> A_u            
     e( 95 - 95) =     93.61707  eV     1   --> A_u            
     e( 96 - 97) =     93.63511  eV     2   -->   2 A_g            
     e( 98 - 99) =     94.98218  eV     2   -->   2 A_g            
     e(100 -100) =     94.98259  eV     1   --> A_g            

 **************************************************************************
 
     BANDS        :    40.63s CPU        51.45s WALL

 
   This run was terminated on:  20:46:10   3Jan2020            

=------------------------------------------------------------------------------=
   JOB DONE.
=------------------------------------------------------------------------------=
IPL WARN> ipl_option_omp: wrong omp option 
